/*--------------------------------*- C++ -*----------------------------------*\
| RapidCFD by simFlow (sim-flow.com)                                          |
\*---------------------------------------------------------------------------*/
FoamFile
{
    version     2.0;
    format      ascii;
    class       volScalarField;
    location    "0.2";
    object      p;
}
// * * * * * * * * * * * * * * * * * * * * * * * * * * * * * * * * * * * * * //

dimensions      [0 2 -2 0 0 0 0];

internalField   nonuniform List<scalar> 
400
(
4.38645e-06
-0.00582073
-0.0129562
-0.0184065
-0.0204227
-0.0182285
-0.0117643
-0.00147531
0.011844
0.0271536
0.0432466
0.0588231
0.072577
0.0833058
0.0900499
0.0922648
0.0900252
0.0842453
0.0768842
0.0710721
0.00578204
-0.00021533
-0.00579944
-0.00953669
-0.0105921
-0.00842539
-0.00296272
0.00548069
0.0163084
0.0287159
0.0417526
0.0543874
0.0655869
0.0744098
0.0801201
0.0823163
0.081079
0.0770581
0.071279
0.0653242
0.0133342
0.00503483
-0.000992498
-0.00441906
-0.00526796
-0.00325839
0.00160801
0.00903297
0.0185069
0.0293533
0.0407686
0.0518721
0.0617703
0.0696379
0.0748087
0.0768804
0.0758451
0.0720907
0.065812
0.0575439
0.0201363
0.00869562
0.00122744
-0.00266564
-0.00371827
-0.00188081
0.00273609
0.00978938
0.0187849
0.0290992
0.0399957
0.0506572
0.0602358
0.0679187
0.0730062
0.0750051
0.0737705
0.0694622
0.061611
0.050113
0.0244975
0.00977189
0.000590644
-0.00398467
-0.00529898
-0.00350334
0.00117922
0.00833927
0.0174667
0.0279536
0.0390893
0.050074
0.0600527
0.0681689
0.0736304
0.0758024
0.0743747
0.0692969
0.0595348
0.0445493
0.0251732
0.00714873
-0.00380122
-0.00905502
-0.0105089
-0.00849594
-0.00335212
0.00443452
0.0143186
0.0256843
0.037819
0.0499084
0.061053
0.070308
0.0767397
0.0795225
0.0781455
0.0723415
0.0605493
0.0419031
0.0210898
-0.000262865
-0.0129331
-0.0187066
-0.0200261
-0.0174093
-0.011313
-0.00231378
0.00899663
0.0219826
0.0359161
0.0499507
0.0631183
0.0743513
0.082528
0.086576
0.085728
0.0794555
0.0656307
0.043085
0.0111414
-0.013617
-0.0278723
-0.0338504
-0.0345988
-0.0308518
-0.0232064
-0.0123381
0.00111236
0.0164917
0.0330604
0.0499413
0.0660908
0.0802971
0.0912078
0.0974373
0.097878
0.0916447
0.0759065
0.0491291
-0.00596524
-0.0342629
-0.0498655
-0.0555432
-0.055084
-0.0495076
-0.0395857
-0.0261048
-0.00974807
0.00883232
0.0289104
0.0496026
0.0698063
0.0881629
0.103056
0.112709
0.115559
0.1102
0.0928439
0.0614227
-0.0318513
-0.0638698
-0.0804102
-0.085
-0.0824124
-0.0740699
-0.0609717
-0.0440267
-0.023941
-0.00132606
0.0231564
0.0486716
0.0741057
0.0979818
0.118405
0.133134
0.139997
0.136826
0.118449
0.0819433
-0.0686573
-0.104594
-0.121336
-0.123581
-0.117506
-0.105117
-0.0877078
-0.0663143
-0.0416252
-0.0141435
0.0156177
0.046965
0.078867
0.109804
0.137633
0.159595
0.172735
0.173786
0.155528
0.113578
-0.119389
-0.159345
-0.174904
-0.172746
-0.161137
-0.142918
-0.119748
-0.092765
-0.0625648
-0.0294346
0.00638613
0.0444862
0.0840672
0.123714
0.161146
0.193095
0.215676
0.224084
0.208057
0.160638
-0.188611
-0.232228
-0.243926
-0.233936
-0.213683
-0.187143
-0.156361
-0.122489
-0.0858848
-0.0464587
-0.00400099
0.0415519
0.0898545
0.139841
0.189329
0.234698
0.271082
0.291671
0.281748
0.229779
-0.283956
-0.32929
-0.331819
-0.308268
-0.274697
-0.236429
-0.195753
-0.153598
-0.109827
-0.0637317
-0.0144244
0.0388765
0.0965666
0.158288
0.222384
0.285297
0.341405
0.381581
0.384918
0.331835
-0.4193
-0.459656
-0.442338
-0.395781
-0.342119
-0.287729
-0.234605
-0.182918
-0.131597
-0.0789719
-0.0232008
0.0374882
0.104565
0.178849
0.259871
0.344978
0.428623
0.499705
0.529678
0.485392
-0.620514
-0.63673
-0.578666
-0.494183
-0.411232
-0.33565
-0.267771
-0.205967
-0.147525
-0.0893706
-0.0284133
0.0383608
0.113819
0.200482
0.299984
0.412033
0.533036
0.65178
0.732774
0.722395
-0.935909
-0.878503
-0.741732
-0.597941
-0.474386
-0.372653
-0.288861
-0.217754
-0.153943
-0.0924525
-0.0287053
0.0417077
0.123275
0.220728
0.338935
0.482162
0.652002
0.841346
1.01527
1.0975
-1.47641
-1.20662
-0.920496
-0.691383
-0.517301
-0.387539
-0.290056
-0.21333
-0.148115
-0.0872052
-0.0245664
0.045469
0.128949
0.233081
0.367112
0.542685
0.771299
1.05932
1.40329
1.73014
-2.53964
-1.63054
-1.04443
-0.710956
-0.495749
-0.352091
-0.254527
-0.183578
-0.126162
-0.0735859
-0.0192583
0.0427985
0.119224
0.218794
0.354822
0.547992
0.8264
1.23659
1.91168
2.92419
-4.36666
-2.04463
-0.973539
-0.56318
-0.357847
-0.240148
-0.170119
-0.12378
-0.0874758
-0.053502
-0.0166438
0.0276731
0.0846208
0.161743
0.272424
0.44211
0.718228
1.22572
2.41104
4.84853
)
;

boundaryField
{
    movingWall
    {
        type            zeroGradient;
    }
    fixedWalls
    {
        type            zeroGradient;
    }
    frontAndBack
    {
        type            empty;
    }
}


// ************************************************************************* //
