/*--------------------------------*- C++ -*----------------------------------*\
| RapidCFD by simFlow (sim-flow.com)                                          |
\*---------------------------------------------------------------------------*/
FoamFile
{
    version     2.0;
    format      ascii;
    class       surfaceScalarField;
    location    "0.2";
    object      phi;
}
// * * * * * * * * * * * * * * * * * * * * * * * * * * * * * * * * * * * * * //

dimensions      [0 3 -1 0 0 0 0];

internalField   nonuniform List<scalar> 
760
(
1.42268e-08
-1.42647e-08
-2.221e-08
3.64362e-08
-1.14252e-07
9.20423e-08
-2.45452e-07
1.312e-07
-3.96028e-07
1.50576e-07
-5.47268e-07
1.5124e-07
-6.83067e-07
1.35799e-07
-7.90519e-07
1.07452e-07
-8.60051e-07
6.95316e-08
-8.85481e-07
2.54298e-08
-8.64164e-07
-2.13164e-08
-7.97247e-07
-6.69175e-08
-6.89964e-07
-1.07282e-07
-5.51879e-07
-1.38086e-07
-3.96879e-07
-1.55e-07
-2.42712e-07
-1.54166e-07
-1.09719e-07
-1.32993e-07
-1.84167e-08
-9.13025e-08
1.56854e-08
-3.41021e-08
1.56852e-08
-3.42108e-08
1.99458e-08
-1.80344e-07
1.8257e-07
-4.33913e-07
3.45612e-07
-7.64299e-07
4.61586e-07
-1.13201e-06
5.18289e-07
-1.49698e-06
5.16207e-07
-1.82302e-06
4.61836e-07
-2.08017e-06
3.64606e-07
-2.24588e-06
2.35243e-07
-2.30564e-06
8.51867e-08
-2.25351e-06
-7.34436e-08
-2.09269e-06
-2.27738e-07
-1.83595e-06
-3.64023e-07
-1.50579e-06
-4.68246e-07
-1.1339e-06
-5.26895e-07
-7.594e-07
-5.28662e-07
-4.25335e-07
-4.67058e-07
-1.72667e-07
-3.4397e-07
-3.07986e-08
-1.75971e-07
-1.51135e-08
-9.22115e-08
1.12157e-07
-3.56932e-07
4.4729e-07
-7.6442e-07
7.531e-07
-1.26826e-06
9.65423e-07
-1.81437e-06
1.0644e-06
-2.34862e-06
1.05046e-06
-2.82193e-06
9.35142e-07
-3.19338e-06
7.36051e-07
-3.432e-06
4.73872e-07
-3.5179e-06
1.71079e-07
-3.44298e-06
-1.48365e-07
-3.21171e-06
-4.59008e-07
-2.84162e-06
-7.34106e-07
-2.36341e-06
-9.46463e-07
-1.82001e-06
-1.07029e-06
-1.26428e-06
-1.08439e-06
-7.544e-07
-9.76937e-07
-3.46915e-07
-7.51454e-07
-8.73223e-08
-4.35563e-07
-1.02436e-07
-1.45184e-07
2.57341e-07
-5.25365e-07
8.27472e-07
-1.08144e-06
1.30917e-06
-1.7472e-06
1.63118e-06
-2.45389e-06
1.7711e-06
-3.13582e-06
1.73239e-06
-3.73463e-06
1.53396e-06
-4.20218e-06
1.20359e-06
-4.50214e-06
7.73838e-07
-4.61114e-06
2.80077e-07
-4.51949e-06
-2.40011e-07
-4.23203e-06
-7.46476e-07
-3.76874e-06
-1.19739e-06
-3.16512e-06
-1.55009e-06
-2.47147e-06
-1.76393e-06
-1.75079e-06
-1.80508e-06
-1.07434e-06
-1.65339e-06
-5.15056e-07
-1.31074e-06
-1.39293e-07
-8.11326e-07
-2.41728e-07
-1.93575e-07
4.50915e-07
-6.84882e-07
1.31878e-06
-1.38539e-06
2.00968e-06
-2.20687e-06
2.45267e-06
-3.06496e-06
2.62919e-06
-3.88314e-06
2.55057e-06
-4.59575e-06
2.24657e-06
-5.14975e-06
1.75759e-06
-5.50556e-06
1.12965e-06
-5.63763e-06
4.1214e-07
-5.53488e-06
-3.42754e-07
-5.20156e-06
-1.0798e-06
-4.65816e-06
-1.74079e-06
-3.94236e-06
-2.2659e-06
-3.10924e-06
-2.59705e-06
-2.23016e-06
-2.68415e-06
-1.38943e-06
-2.49412e-06
-6.78397e-07
-2.02177e-06
-1.87739e-07
-1.30198e-06
-4.29466e-07
-2.39903e-07
6.90818e-07
-8.40224e-07
1.9191e-06
-1.68304e-06
2.85249e-06
-2.65667e-06
3.4263e-06
-3.66031e-06
3.63283e-06
-4.60711e-06
3.49737e-06
-5.42559e-06
3.06505e-06
-6.05972e-06
2.39172e-06
-6.46846e-06
1.53839e-06
-6.62515e-06
5.68825e-07
-6.51744e-06
-4.50461e-07
-6.14798e-06
-1.44926e-06
-5.53582e-06
-2.35296e-06
-4.71831e-06
-3.0834e-06
-3.75298e-06
-3.56239e-06
-2.71813e-06
-3.719e-06
-1.71132e-06
-3.50093e-06
-8.44554e-07
-2.88854e-06
-2.36148e-07
-1.91039e-06
-6.65614e-07
-2.8671e-07
9.77528e-07
-9.9697e-07
2.62936e-06
-1.98186e-06
3.83738e-06
-3.1046e-06
4.54904e-06
-4.24748e-06
4.77571e-06
-5.31423e-06
4.56412e-06
-6.22943e-06
3.98025e-06
-6.93641e-06
3.09871e-06
-7.39468e-06
1.99666e-06
-7.57781e-06
7.5195e-07
-7.47237e-06
-5.55899e-07
-7.07837e-06
-1.84325e-06
-6.41123e-06
-3.02011e-06
-5.50503e-06
-3.98959e-06
-4.41662e-06
-4.65079e-06
-3.22905e-06
-4.90657e-06
-2.05275e-06
-4.67723e-06
-1.02244e-06
-3.91885e-06
-2.88252e-07
-2.64457e-06
-9.53865e-07
-3.36303e-07
1.31383e-06
-1.16028e-06
3.45334e-06
-2.28784e-06
4.96494e-06
-3.55472e-06
5.81592e-06
-4.82624e-06
6.04724e-06
-5.9986e-06
5.73647e-06
-6.99548e-06
4.97713e-06
-7.76291e-06
3.86614e-06
-8.26384e-06
2.49759e-06
-8.47396e-06
9.6207e-07
-8.37933e-06
-6.50533e-07
-7.9763e-06
-2.24627e-06
-7.27405e-06
-3.72236e-06
-6.29951e-06
-4.96414e-06
-5.10432e-06
-5.84598e-06
-3.77227e-06
-6.23862e-06
-2.42472e-06
-6.02478e-06
-1.22066e-06
-5.12291e-06
-3.47683e-07
-3.51755e-06
-1.30155e-06
-3.9094e-07
1.70477e-06
-1.33483e-06
4.39722e-06
-2.60486e-06
6.23498e-06
-4.00577e-06
7.21683e-06
-5.38658e-06
7.42804e-06
-6.63945e-06
6.98934e-06
-7.69208e-06
6.02977e-06
-8.49808e-06
4.67213e-06
-9.028e-06
3.02752e-06
-9.2625e-06
1.19657e-06
-9.18824e-06
-7.24797e-07
-8.79709e-06
-2.63742e-06
-8.08902e-06
-4.43044e-06
-7.07872e-06
-5.97443e-06
-5.80609e-06
-7.11862e-06
-4.34887e-06
-7.69583e-06
-2.8347e-06
-7.53895e-06
-1.44704e-06
-6.51058e-06
-4.18082e-07
-4.54651e-06
-1.71963e-06
-4.53449e-07
2.15822e-06
-1.52567e-06
5.46944e-06
-2.93485e-06
7.64416e-06
-4.45007e-06
8.73204e-06
-5.90626e-06
8.88423e-06
-7.19773e-06
8.28081e-06
-8.26356e-06
7.0956e-06
-9.07195e-06
5.48052e-06
-9.60675e-06
3.56231e-06
-9.85747e-06
1.44729e-06
-9.8133e-06
-7.68968e-07
-9.46126e-06
-2.98945e-06
-8.78899e-06
-5.1027e-06
-7.7929e-06
-6.97052e-06
-6.49212e-06
-8.41939e-06
-4.9479e-06
-9.24005e-06
-3.28507e-06
-9.20179e-06
-1.70865e-06
-8.08699e-06
-5.03579e-07
-5.75158e-06
-2.22321e-06
-5.28344e-07
2.68656e-06
-1.73969e-06
6.68079e-06
-3.27802e-06
9.1825e-06
-4.8717e-06
1.03257e-05
-6.34711e-06
1.03596e-05
-7.61094e-06
9.54465e-06
-8.62448e-06
8.10914e-06
-9.37982e-06
6.23586e-06
-9.88113e-06
4.06362e-06
-1.01317e-05
1.69783e-06
-1.01259e-05
-7.74727e-07
-9.84645e-06
-3.26892e-06
-9.26608e-06
-5.68307e-06
-8.35641e-06
-7.8802e-06
-7.10475e-06
-9.67105e-06
-5.54073e-06
-1.08041e-05
-3.77072e-06
-1.09718e-05
-2.01217e-06
-9.84554e-06
-6.09689e-07
-7.15406e-06
-2.8329e-06
-6.23687e-07
3.31025e-06
-1.98745e-06
8.04455e-06
-3.63204e-06
1.08271e-05
-5.24212e-06
1.19358e-05
-6.64783e-06
1.17653e-05
-7.78479e-06
1.06816e-05
-8.65137e-06
8.97573e-06
-9.2747e-06
6.85919e-06
-9.68695e-06
4.47587e-06
-9.91023e-06
1.92111e-06
-9.94763e-06
-7.37326e-07
-9.77895e-06
-3.4376e-06
-9.3612e-06
-6.10081e-06
-8.63588e-06
-8.60553e-06
-7.54658e-06
-1.07603e-05
-6.07172e-06
-1.22789e-05
-4.27435e-06
-1.27692e-05
-2.36369e-06
-1.17562e-05
-7.44787e-07
-8.77296e-06
-3.57768e-06
-7.54107e-07
4.06436e-06
-2.28445e-06
9.57489e-06
-3.9872e-06
1.25298e-05
-5.50939e-06
1.3458e-05
-6.71e-06
1.2966e-05
-7.57904e-06
1.15507e-05
-8.17061e-06
9.5673e-06
-8.55824e-06
7.24682e-06
-8.80837e-06
4.726e-06
-8.9657e-06
2.07844e-06
-9.045e-06
-6.5803e-07
-9.02633e-06
-3.45626e-06
-8.85311e-06
-6.27403e-06
-8.43525e-06
-9.02339e-06
-7.66324e-06
-1.15324e-05
-6.44224e-06
-1.34999e-05
-4.7564e-06
-1.4455e-05
-2.76682e-06
-1.37458e-05
-9.22453e-07
-1.06173e-05
-4.50014e-06
-9.45242e-07
5.0096e-06
-2.64861e-06
1.12783e-05
-4.31122e-06
1.41924e-05
-5.57365e-06
1.47204e-05
-6.37115e-06
1.37635e-05
-6.78385e-06
1.19634e-05
-6.94116e-06
9.7246e-06
-6.97045e-06
7.27611e-06
-6.97354e-06
4.72908e-06
-7.01726e-06
2.12216e-06
-7.12934e-06
-5.45952e-07
-7.29444e-06
-3.29116e-06
-7.44924e-06
-6.11923e-06
-7.47839e-06
-8.99424e-06
-7.21833e-06
-1.17924e-05
-6.48304e-06
-1.42352e-05
-5.13361e-06
-1.58044e-05
-3.21507e-06
-1.56643e-05
-1.16441e-06
-1.2668e-05
-5.66455e-06
-1.23735e-06
6.24695e-06
-3.08341e-06
1.31243e-05
-4.50794e-06
1.5617e-05
-5.23484e-06
1.54473e-05
-5.3557e-06
1.38843e-05
-5.08244e-06
1.16901e-05
-4.6316e-06
9.27376e-06
-4.18003e-06
6.82455e-06
-3.85517e-06
4.40422e-06
-3.73785e-06
2.00484e-06
-3.86593e-06
-4.17869e-07
-4.23339e-06
-2.9237e-06
-4.78275e-06
-5.56987e-06
-5.39163e-06
-8.38535e-06
-5.85894e-06
-1.13251e-05
-5.90689e-06
-1.41873e-05
-5.23302e-06
-1.64783e-05
-3.66637e-06
-1.7231e-05
-1.50011e-06
-1.48342e-05
-7.16465e-06
-1.67384e-06
7.92079e-06
-3.51347e-06
1.4964e-05
-4.31552e-06
1.6419e-05
-4.08921e-06
1.5221e-05
-3.19351e-06
1.29886e-05
-1.99932e-06
1.04959e-05
-7.95827e-07
8.07027e-06
2.18574e-07
5.81014e-06
9.17422e-07
3.70538e-06
1.22478e-06
1.69748e-06
1.10126e-06
-2.94347e-07
5.40306e-07
-2.36275e-06
-4.23603e-07
-4.60596e-06
-1.69314e-06
-7.11582e-06
-3.07286e-06
-9.94539e-06
-4.23114e-06
-1.3029e-05
-4.69585e-06
-1.60136e-05
-3.96728e-06
-1.79595e-05
-1.94495e-06
-1.68566e-05
-9.10961e-06
-2.23071e-06
1.01515e-05
-3.59038e-06
1.63236e-05
-3.07795e-06
1.59066e-05
-1.34416e-06
1.34872e-05
8.96641e-07
1.07478e-05
3.15446e-06
8.23807e-06
5.13751e-06
6.08722e-06
6.68801e-06
4.25965e-06
7.7251e-06
2.66828e-06
8.2058e-06
1.21678e-06
8.10315e-06
-1.91696e-07
7.39834e-06
-1.65794e-06
6.08624e-06
-3.29386e-06
4.19866e-06
-5.22824e-06
1.85374e-06
-7.60046e-06
-6.62014e-07
-1.05132e-05
-2.79236e-06
-1.38832e-05
-3.66218e-06
-1.70897e-05
-2.41157e-06
-1.81072e-05
-1.15212e-05
-2.57383e-06
1.27253e-05
-2.18351e-06
1.59333e-05
7.17956e-07
1.30051e-05
4.46937e-06
9.7358e-06
8.13299e-06
7.08421e-06
1.13012e-05
5.06989e-06
1.38286e-05
3.55979e-06
1.56875e-05
2.40071e-06
1.68911e-05
1.46475e-06
1.74543e-05
6.53586e-07
1.73758e-05
-1.13189e-07
1.66299e-05
-9.12114e-07
1.51667e-05
-1.8306e-06
1.29231e-05
-2.98465e-06
9.86142e-06
-4.53879e-06
6.06172e-06
-6.71354e-06
1.91219e-06
-9.73371e-06
-1.5597e-06
-1.36178e-05
-2.45836e-06
-1.72085e-05
-1.39795e-05
-7.85012e-07
1.35103e-05
4.08078e-06
1.10675e-05
1.02975e-05
6.78841e-06
1.57935e-05
4.23977e-06
2.01579e-05
2.71988e-06
2.34578e-05
1.76991e-06
2.58605e-05
1.15711e-06
2.75212e-05
7.40032e-07
2.85537e-05
4.3228e-07
2.9026e-05
1.81217e-07
2.89618e-05
-4.89771e-08
2.83384e-05
-2.88687e-07
2.70815e-05
-5.73722e-07
2.50548e-05
-9.57933e-07
2.20515e-05
-1.5355e-06
1.78153e-05
-2.47739e-06
1.21723e-05
-4.09066e-06
5.47768e-06
-6.92322e-06
-1.29181e-07
-1.16017e-05
-1.41087e-05
1.35103e-05
2.45779e-05
3.13663e-05
3.5606e-05
3.83259e-05
4.00958e-05
4.12529e-05
4.1993e-05
4.24253e-05
4.26065e-05
4.25575e-05
4.22688e-05
4.16951e-05
4.07372e-05
3.92017e-05
3.67243e-05
3.26336e-05
2.57104e-05
1.41087e-05
)
;

boundaryField
{
    movingWall
    {
        type            calculated;
        value           uniform 0;
    }
    fixedWalls
    {
        type            calculated;
        value           uniform 0;
    }
    frontAndBack
    {
        type            empty;
        value           nonuniform 0();
    }
}


// ************************************************************************* //
