/*--------------------------------*- C++ -*----------------------------------*\
| RapidCFD by simFlow (sim-flow.com)                                          |
\*---------------------------------------------------------------------------*/
FoamFile
{
    version     2.0;
    format      ascii;
    class       volVectorField;
    location    "0.2";
    object      U;
}
// * * * * * * * * * * * * * * * * * * * * * * * * * * * * * * * * * * * * * //

dimensions      [0 1 -1 0 0 0 0];

internalField   nonuniform List<vector> 
400
(
(0.000253321 -0.000250388 0)
(0.000141109 0.000111411 0)
(-0.00117684 0.000564499 0)
(-0.00348053 0.000884812 0)
(-0.00637635 0.0010455 0)
(-0.00946776 0.00106154 0)
(-0.0124007 0.000957662 0)
(-0.0148823 0.000760295 0)
(-0.0166865 0.000494556 0)
(-0.0176552 0.000184534 0)
(-0.0176991 -0.000145232 0)
(-0.0168022 -0.000468271 0)
(-0.0150276 -0.000755268 0)
(-0.0125231 -0.000974081 0)
(-0.00952487 -0.00109099 0)
(-0.00635401 -0.00107382 0)
(-0.00340017 -0.000897974 0)
(-0.00108633 -0.000556311 0)
(0.000196343 -9.03738e-05 0)
(0.000267801 0.000262324 0)
(-7.74714e-05 -0.000169329 0)
(-0.00161131 0.00164454 0)
(-0.00569191 0.00361665 0)
(-0.0117168 0.00503391 0)
(-0.018889 0.00574219 0)
(-0.0263961 0.00575917 0)
(-0.0334634 0.00517076 0)
(-0.03942 0.00409181 0)
(-0.0437365 0.00264721 0)
(-0.0460394 0.00096681 0)
(-0.0461218 -0.000813024 0)
(-0.0439541 -0.00254658 0)
(-0.0396948 -0.00407789 0)
(-0.0336973 -0.00524418 0)
(-0.0265092 -0.00588556 0)
(-0.0188517 -0.00586388 0)
(-0.0115649 -0.00509395 0)
(-0.00551251 -0.00358889 0)
(-0.0014929 -0.00155895 0)
(-4.25876e-05 0.000227374 0)
(-0.000528513 0.00109145 0)
(-0.00371074 0.00573528 0)
(-0.0105871 0.0102227 0)
(-0.0199883 0.0134053 0)
(-0.0307596 0.0149436 0)
(-0.0418152 0.0148362 0)
(-0.0521112 0.0132534 0)
(-0.0607342 0.0104545 0)
(-0.0669585 0.00674094 0)
(-0.0702714 0.00243858 0)
(-0.0703894 -0.00210603 0)
(-0.0672738 -0.00652421 0)
(-0.0611428 -0.0104273 0)
(-0.0524804 -0.0134187 0)
(-0.0420307 -0.0151209 0)
(-0.0307693 -0.0152231 0)
(-0.0198261 -0.0135538 0)
(-0.010362 -0.0101773 0)
(-0.003548 -0.00555028 0)
(-0.000476777 -0.000948748 0)
(-0.000928052 0.00347923 0)
(-0.00569052 0.0122185 0)
(-0.0152993 0.0199182 0)
(-0.0279123 0.0251934 0)
(-0.0419787 0.0275922 0)
(-0.0561702 0.0271329 0)
(-0.0692412 0.0241049 0)
(-0.0801133 0.0189508 0)
(-0.0879348 0.0121937 0)
(-0.0921049 0.00440458 0)
(-0.0922896 -0.00380706 0)
(-0.0884371 -0.0117943 0)
(-0.0807931 -0.0188788 0)
(-0.0699128 -0.0243721 0)
(-0.0566611 -0.027623 0)
(-0.0421888 -0.0280972 0)
(-0.0278526 -0.0254936 0)
(-0.0150915 -0.0198886 0)
(-0.00550424 -0.0119259 0)
(-0.000861468 -0.00322443 0)
(-0.00127871 0.00687659 0)
(-0.00753485 0.02095 0)
(-0.0198018 0.0325048 0)
(-0.0355296 0.0400964 0)
(-0.0527358 0.043283 0)
(-0.0698486 0.0421857 0)
(-0.0854514 0.0372714 0)
(-0.0983469 0.0292084 0)
(-0.107605 0.0187744 0)
(-0.112573 0.006813 0)
(-0.112882 -0.00577899 0)
(-0.10846 -0.0180513 0)
(-0.0995491 -0.0290063 0)
(-0.0867279 -0.0376263 0)
(-0.0709266 -0.0429379 0)
(-0.0534234 -0.0441218 0)
(-0.03578 -0.0406723 0)
(-0.0197326 -0.0325875 0)
(-0.00736961 -0.0205875 0)
(-0.0012035 -0.0064972 0)
(-0.00160728 0.0112137 0)
(-0.00931675 0.0318692 0)
(-0.0242061 0.0479438 0)
(-0.0429971 0.0580623 0)
(-0.063249 0.0619269 0)
(-0.0831425 0.0598714 0)
(-0.101112 0.0526198 0)
(-0.115878 0.0411194 0)
(-0.126473 0.0264332 0)
(-0.132221 0.00969189 0)
(-0.132734 -0.00791439 0)
(-0.127908 -0.0251274 0)
(-0.117952 -0.0406179 0)
(-0.103422 -0.0530104 0)
(-0.0852591 -0.0609563 0)
(-0.0648281 -0.06327 0)
(-0.0438804 -0.0591328 0)
(-0.0244748 -0.048337 0)
(-0.00925321 -0.0315529 0)
(-0.00153755 -0.010727 0)
(-0.00193981 0.0164743 0)
(-0.01112 0.0449669 0)
(-0.0286472 0.0662227 0)
(-0.0504744 0.0790467 0)
(-0.0736771 0.083433 0)
(-0.0961935 0.0800614 0)
(-0.116339 0.0700134 0)
(-0.132801 0.0545766 0)
(-0.144616 0.0351267 0)
(-0.151126 0.0130834 0)
(-0.151934 -0.010084 0)
(-0.146901 -0.0328266 0)
(-0.136168 -0.0534906 0)
(-0.120211 -0.0703254 0)
(-0.0999229 -0.0815524 0)
(-0.076694 -0.0855197 0)
(-0.0524351 -0.0809517 0)
(-0.029542 -0.0672673 0)
(-0.0112825 -0.0449332 0)
(-0.00189987 -0.0159493 0)
(-0.00229983 0.0226914 0)
(-0.013024 0.0602918 0)
(-0.0332481 0.0873505 0)
(-0.058075 0.102981 0)
(-0.0840678 0.107649 0)
(-0.108945 0.102546 0)
(-0.130957 0.089231 0)
(-0.148822 0.0694009 0)
(-0.161653 0.0447657 0)
(-0.168854 0.0170183 0)
(-0.17005 -0.0121306 0)
(-0.165058 -0.040886 0)
(-0.153918 -0.0673034 0)
(-0.136959 -0.0892595 0)
(-0.114934 -0.104497 0)
(-0.0891694 -0.110781 0)
(-0.0616662 -0.106198 0)
(-0.0351458 -0.0895675 0)
(-0.0135849 -0.0609415 0)
(-0.00232615 -0.0222747 0)
(-0.0027115 0.0299428 0)
(-0.0151072 0.0779459 0)
(-0.0381128 0.111341 0)
(-0.0658451 0.129732 0)
(-0.094322 0.134299 0)
(-0.121093 0.126956 0)
(-0.144436 0.109887 0)
(-0.163204 0.0852704 0)
(-0.176678 0.0551603 0)
(-0.184397 0.0214852 0)
(-0.186048 -0.0138714 0)
(-0.181413 -0.0489485 0)
(-0.170386 -0.0815811 0)
(-0.153073 -0.109308 0)
(-0.129965 -0.129363 0)
(-0.102181 -0.13881 0)
(-0.0716862 -0.13487 0)
(-0.041465 -0.115455 0)
(-0.0162873 -0.079886 0)
(-0.00285456 -0.0298861 0)
(-0.00320761 0.038355 0)
(-0.017466 0.0980778 0)
(-0.0433404 0.138173 0)
(-0.0737554 0.159026 0)
(-0.104158 0.162881 0)
(-0.13203 0.152654 0)
(-0.155823 0.131325 0)
(-0.174675 0.101628 0)
(-0.188164 0.0659503 0)
(-0.196064 0.0263876 0)
(-0.198182 -0.0151092 0)
(-0.19428 -0.0565367 0)
(-0.184078 -0.0956288 0)
(-0.167363 -0.129672 0)
(-0.144213 -0.155405 0)
(-0.115336 -0.169078 0)
(-0.0824442 -0.166784 0)
(-0.0486352 -0.145109 0)
(-0.0195283 -0.10215 0)
(-0.00353349 -0.0390434 0)
(-0.00384403 0.048124 0)
(-0.0202465 0.120882 0)
(-0.0490474 0.167735 0)
(-0.0816877 0.190347 0)
(-0.113055 0.192537 0)
(-0.140748 0.178596 0)
(-0.163624 0.152496 0)
(-0.181312 0.11758 0)
(-0.193849 0.0765275 0)
(-0.201364 0.0314923 0)
(-0.20386 -0.0156553 0)
(-0.201112 -0.0630417 0)
(-0.192651 -0.108478 0)
(-0.177859 -0.149154 0)
(-0.156225 -0.181396 0)
(-0.12778 -0.200587 0)
(-0.0936446 -0.201406 0)
(-0.0567332 -0.178558 0)
(-0.0234799 -0.128162 0)
(-0.00443553 -0.0501004 0)
(-0.00472555 0.0595669 0)
(-0.0236956 0.146606 0)
(-0.0553851 0.19974 0)
(-0.08938 0.222772 0)
(-0.120127 0.221872 0)
(-0.145682 0.20317 0)
(-0.165638 0.171824 0)
(-0.18038 0.131799 0)
(-0.19059 0.0859627 0)
(-0.196873 0.0363744 0)
(-0.199511 -0.0153673 0)
(-0.198344 -0.0677348 0)
(-0.192725 -0.118854 0)
(-0.181581 -0.166062 0)
(-0.16365 -0.20547 0)
(-0.13797 -0.231642 0)
(-0.104598 -0.237607 0)
(-0.0657348 -0.21551 0)
(-0.0283781 -0.158357 0)
(-0.00568215 -0.0635483 0)
(-0.00605184 0.0732246 0)
(-0.0282272 0.175554 0)
(-0.0625119 0.233556 0)
(-0.0962624 0.25473 0)
(-0.123865 0.248714 0)
(-0.144408 0.22401 0)
(-0.158682 0.187093 0)
(-0.16812 0.142451 0)
(-0.174215 0.0929622 0)
(-0.178133 0.0403771 0)
(-0.180499 -0.0141957 0)
(-0.181279 -0.0698138 0)
(-0.179708 -0.125199 0)
(-0.174281 -0.178166 0)
(-0.162903 -0.224957 0)
(-0.143322 -0.259571 0)
(-0.113941 -0.273313 0)
(-0.0753953 -0.255053 0)
(-0.0345571 -0.193081 0)
(-0.00748642 -0.0801006 0)
(-0.00819237 0.0900434 0)
(-0.0344843 0.208012 0)
(-0.070416 0.267872 0)
(-0.10103 0.283592 0)
(-0.121583 0.269796 0)
(-0.133119 0.237826 0)
(-0.138177 0.195392 0)
(-0.139478 0.147223 0)
(-0.139384 0.0959032 0)
(-0.139613 0.0426177 0)
(-0.141127 -0.0122307 0)
(-0.144072 -0.0685009 0)
(-0.147684 -0.125784 0)
(-0.150182 -0.182757 0)
(-0.148731 -0.23631 0)
(-0.139651 -0.280432 0)
(-0.1191 -0.305011 0)
(-0.0849388 -0.295147 0)
(-0.0424415 -0.232369 0)
(-0.0102162 -0.100834 0)
(-0.0117678 0.111633 0)
(-0.0432613 0.243955 0)
(-0.0783011 0.300025 0)
(-0.100634 0.305081 0)
(-0.108361 0.280448 0)
(-0.105743 0.240371 0)
(-0.0975437 0.193271 0)
(-0.0877871 0.143541 0)
(-0.0795185 0.0930308 0)
(-0.0748035 0.0420933 0)
(-0.074821 -0.00972713 0)
(-0.079908 -0.0632063 0)
(-0.0894786 -0.118983 0)
(-0.101802 -0.176947 0)
(-0.113697 -0.235274 0)
(-0.120313 -0.28887 0)
(-0.115269 -0.327185 0)
(-0.0922696 -0.331785 0)
(-0.0523169 -0.275397 0)
(-0.0144305 -0.127345 0)
(-0.0175496 0.140658 0)
(-0.0547659 0.282142 0)
(-0.0827896 0.324712 0)
(-0.0880864 0.312465 0)
(-0.0751171 0.274447 0)
(-0.0526023 0.226762 0)
(-0.0274722 0.17728 0)
(-0.00453029 0.129129 0)
(0.0130817 0.0829089 0)
(0.0234221 0.0379455 0)
(0.0253807 -0.00707239 0)
(0.0184904 -0.0537551 0)
(0.00296429 -0.103746 0)
(-0.0200104 -0.158313 0)
(-0.0476969 -0.217494 0)
(-0.074993 -0.278352 0)
(-0.0935523 -0.331783 0)
(-0.0920669 -0.357676 0)
(-0.0632817 -0.319289 0)
(-0.0206338 -0.161972 0)
(-0.0254499 0.18171 0)
(-0.0657755 0.317769 0)
(-0.0733357 0.331358 0)
(-0.0480818 0.295396 0)
(-0.00558545 0.244206 0)
(0.0412089 0.192374 0)
(0.0846411 0.145042 0)
(0.120523 0.102967 0)
(0.146687 0.0651352 0)
(0.162031 0.0298904 0)
(0.165925 -0.00467089 0)
(0.15792 -0.0406262 0)
(0.137718 -0.080243 0)
(0.105428 -0.125913 0)
(0.062252 -0.179721 0)
(0.011798 -0.242015 0)
(-0.0378351 -0.307872 0)
(-0.0716823 -0.360139 0)
(-0.0700566 -0.356605 0)
(-0.0279125 -0.208374 0)
(-0.029649 0.239176 0)
(-0.0608418 0.335767 0)
(-0.021944 0.300501 0)
(0.0505386 0.240125 0)
(0.127567 0.182946 0)
(0.197 0.135386 0)
(0.254327 0.097396 0)
(0.298239 0.0668487 0)
(0.328812 0.0413538 0)
(0.346454 0.018778 0)
(0.351363 -0.00279378 0)
(0.34329 -0.0252639 0)
(0.321457 -0.0507858 0)
(0.284632 -0.0820456 0)
(0.231564 -0.122443 0)
(0.162175 -0.175666 0)
(0.0798963 -0.243428 0)
(-0.00319226 -0.319134 0)
(-0.0546705 -0.368611 0)
(-0.0284595 -0.267617 0)
(0.00808316 0.281862 0)
(0.019783 0.294972 0)
(0.139065 0.210972 0)
(0.264458 0.143476 0)
(0.364364 0.0971847 0)
(0.440359 0.0657761 0)
(0.496737 0.0442363 0)
(0.536866 0.0288851 0)
(0.563438 0.0171983 0)
(0.578296 0.00748459 0)
(0.582371 -0.00149394 0)
(0.575687 -0.0108447 0)
(0.557301 -0.0218463 0)
(0.525128 -0.0363339 0)
(0.475771 -0.0572585 0)
(0.404533 -0.089383 0)
(0.305173 -0.13974 0)
(0.173415 -0.216385 0)
(0.0411715 -0.311654 0)
(0.0184301 -0.299995 0)
(0.299604 0.146091 0)
(0.396272 0.127503 0)
(0.55742 0.0760894 0)
(0.674487 0.0437231 0)
(0.743887 0.0255718 0)
(0.787152 0.0152419 0)
(0.815483 0.00921211 0)
(0.833952 0.00550924 0)
(0.845382 0.00302708 0)
(0.851368 0.00114933 0)
(0.852663 -0.000499334 0)
(0.849379 -0.00221496 0)
(0.840996 -0.0043384 0)
(0.826138 -0.00742389 0)
(0.802076 -0.012532 0)
(0.763619 -0.0217726 0)
(0.699107 -0.0392827 0)
(0.583952 -0.07266 0)
(0.415827 -0.127868 0)
(0.308819 -0.149468 0)
)
;

boundaryField
{
    movingWall
    {
        type            fixedValue;
        value           uniform (1 0 0);
    }
    fixedWalls
    {
        type            fixedValue;
        value           uniform (0 0 0);
    }
    frontAndBack
    {
        type            empty;
    }
}


// ************************************************************************* //
