/*--------------------------------*- C++ -*----------------------------------*\
| RapidCFD by simFlow (sim-flow.com)                                          |
\*---------------------------------------------------------------------------*/
FoamFile
{
    version     2.0;
    format      ascii;
    class       volScalarField;
    location    "0.1";
    object      p;
}
// * * * * * * * * * * * * * * * * * * * * * * * * * * * * * * * * * * * * * //

dimensions      [0 2 -2 0 0 0 0];

internalField   nonuniform List<scalar> 
400
(
-1.24073e-07
-0.00580502
-0.0129088
-0.0183292
-0.0203247
-0.0181221
-0.0116622
-0.00138895
0.0119054
0.0271842
0.0432442
0.05879
0.0725194
0.0832335
0.0899753
0.0922009
0.089984
0.0842348
0.0769048
0.0711133
0.00575002
-0.000223561
-0.00578232
-0.00949719
-0.0105362
-0.00836088
-0.00289778
0.00553844
0.0163526
0.0287423
0.0417594
0.054376
0.0655614
0.0743767
0.0800878
0.0822934
0.0810736
0.0770755
0.0713207
0.0653868
0.0132679
0.00500139
-0.000999902
-0.00440626
-0.00523988
-0.00322057
0.00164998
0.00907372
0.0185418
0.0293789
0.0407833
0.0518763
0.0617668
0.0696313
0.0748049
0.076886
0.0758662
0.0721323
0.0658781
0.0576382
0.0200401
0.00864166
0.00120279
-0.00266963
-0.00370638
-0.00185748
0.00276655
0.00982286
0.0188177
0.029128
0.0400188
0.0506745
0.0602489
0.0679309
0.0730223
0.0750308
0.0738115
0.0695238
0.0617001
0.0502387
0.0243835
0.00970614
0.000556408
-0.0039977
-0.00529528
-0.00348655
0.00120577
0.00837232
0.0175029
0.02799
0.0391237
0.0501054
0.0600819
0.0681982
0.0736638
0.0758449
0.074432
0.0693749
0.0596424
0.0446991
0.0250585
0.00708322
-0.00383531
-0.00906817
-0.010505
-0.00847762
-0.00332191
0.00447399
0.0143643
0.0257331
0.0378681
0.0499562
0.0610993
0.0703543
0.0767891
0.0795796
0.0782159
0.0724315
0.0606689
0.0420665
0.0209931
-0.000314674
-0.0129563
-0.0187104
-0.0200132
-0.0173814
-0.0112718
-0.00226134
0.00905745
0.0220483
0.0359835
0.0500174
0.0631831
0.0744149
0.0825927
0.0866458
0.0858083
0.0795527
0.0657549
0.0432501
0.0110806
-0.0136423
-0.0278745
-0.033836
-0.0345689
-0.0308072
-0.0231478
-0.0122671
0.00119293
0.0165782
0.0331491
0.050029
0.0661754
0.0803783
0.0912871
0.0975182
0.0979654
0.0917444
0.0760279
0.0492848
-0.00597575
-0.0342512
-0.0498383
-0.0555034
-0.0550311
-0.0494409
-0.0395053
-0.0260117
-0.00964485
0.00894194
0.029022
0.0497123
0.0699111
0.0882615
0.103149
0.112799
0.11565
0.110298
0.0929561
0.0615592
-0.0318028
-0.0638149
-0.080349
-0.0849313
-0.0823338
-0.0739794
-0.0608683
-0.0439109
-0.0238151
-0.00119387
0.0232902
0.0488021
0.0742291
0.098096
0.11851
0.133232
0.14009
0.136919
0.118547
0.082053
-0.0685484
-0.104496
-0.121241
-0.123484
-0.117404
-0.105005
-0.0875845
-0.0661792
-0.0414801
-0.0139922
0.01577
0.0471128
0.0790055
0.10993
0.137747
0.159696
0.172827
0.17387
0.155608
0.113656
-0.119225
-0.159208
-0.174781
-0.172628
-0.161017
-0.142792
-0.119611
-0.0926172
-0.0624069
-0.0292703
0.00655111
0.0446455
0.0842152
0.123847
0.161263
0.193196
0.215763
0.224157
0.208116
0.160681
-0.188408
-0.232064
-0.243784
-0.233805
-0.213555
-0.187012
-0.156221
-0.122337
-0.0857224
-0.0462893
-0.00383083
0.0417155
0.0900049
0.139974
0.189443
0.234793
0.271159
0.29173
0.281785
0.229788
-0.283731
-0.329113
-0.331671
-0.308137
-0.274574
-0.236304
-0.19562
-0.153452
-0.109669
-0.0635656
-0.0142571
0.0390366
0.0967119
0.158413
0.222488
0.285379
0.341467
0.381623
0.384933
0.331812
-0.419078
-0.459486
-0.442201
-0.395665
-0.342014
-0.287625
-0.234491
-0.18279
-0.131453
-0.078818
-0.0230445
0.0376373
0.104699
0.17896
0.259959
0.345044
0.428668
0.499729
0.529673
0.485342
-0.620319
-0.636584
-0.578556
-0.494099
-0.41116
-0.335577
-0.267687
-0.205865
-0.147405
-0.0892369
-0.0282748
0.0384935
0.113936
0.200577
0.300054
0.412079
0.533061
0.651785
0.732752
0.722328
-0.935761
-0.878398
-0.741663
-0.597898
-0.474356
-0.37262
-0.288814
-0.217685
-0.153852
-0.0923434
-0.0285874
0.0418232
0.123377
0.220809
0.33899
0.482193
0.652012
0.841337
1.01524
1.09743
-1.47632
-1.20656
-0.92047
-0.691383
-0.517312
-0.387546
-0.290044
-0.213293
-0.148052
-0.087119
-0.0244659
0.0455726
0.129044
0.233158
0.367165
0.542713
0.771303
1.05931
1.40325
1.73007
-2.53959
-1.63052
-1.04444
-0.710992
-0.495797
-0.352134
-0.254551
-0.183572
-0.126123
-0.0735168
-0.0191664
0.0429022
0.119327
0.218885
0.354893
0.548038
0.826419
1.23658
1.91165
2.92414
-4.36663
-2.04462
-0.973573
-0.56325
-0.357935
-0.240233
-0.170183
-0.123809
-0.0874616
-0.0534451
-0.0165507
0.027791
0.0847496
0.161868
0.272534
0.442196
0.718284
1.22574
2.41104
4.84851
)
;

boundaryField
{
    movingWall
    {
        type            zeroGradient;
    }
    fixedWalls
    {
        type            zeroGradient;
    }
    frontAndBack
    {
        type            empty;
    }
}


// ************************************************************************* //
