/*--------------------------------*- C++ -*----------------------------------*\
| RapidCFD by simFlow (sim-flow.com)                                          |
\*---------------------------------------------------------------------------*/
FoamFile
{
    version     2.0;
    format      ascii;
    class       surfaceScalarField;
    location    "0.1";
    object      phi;
}
// * * * * * * * * * * * * * * * * * * * * * * * * * * * * * * * * * * * * * //

dimensions      [0 3 -1 0 0 0 0];

internalField   nonuniform List<scalar> 
760
(
1.41672e-08
-1.41664e-08
-2.21693e-08
3.63363e-08
-1.13885e-07
9.17151e-08
-2.44594e-07
1.3071e-07
-3.94598e-07
1.50004e-07
-5.4526e-07
1.50662e-07
-6.80543e-07
1.35282e-07
-7.87593e-07
1.07049e-07
-8.56876e-07
6.92831e-08
-8.82237e-07
2.53604e-08
-8.61038e-07
-2.11992e-08
-7.94414e-07
-6.66246e-08
-6.87571e-07
-1.06843e-07
-5.50025e-07
-1.37546e-07
-3.95606e-07
-1.5442e-07
-2.41991e-07
-1.53615e-07
-1.09448e-07
-1.32543e-07
-1.84266e-08
-9.10212e-08
1.56027e-08
-3.40287e-08
1.5603e-08
-3.40768e-08
1.99103e-08
-1.79649e-07
1.81909e-07
-4.32234e-07
3.44299e-07
-7.61324e-07
4.598e-07
-1.12759e-06
5.1627e-07
-1.49112e-06
5.14194e-07
-1.81588e-06
4.60046e-07
-2.07206e-06
3.6322e-07
-2.23717e-06
2.34396e-07
-2.29677e-06
8.49611e-08
-2.24494e-06
-7.30255e-08
-2.08485e-06
-2.26716e-07
-1.8292e-06
-3.62498e-07
-1.50037e-06
-4.66375e-07
-1.12991e-06
-5.24875e-07
-7.5681e-07
-5.26717e-07
-4.23939e-07
-4.65414e-07
-1.72133e-07
-3.42826e-07
-3.07184e-08
-1.75443e-07
-1.51153e-08
-9.18273e-08
1.11737e-07
-3.55499e-07
4.45579e-07
-7.61398e-07
7.50198e-07
-1.26328e-06
9.6168e-07
-1.80728e-06
1.06027e-06
-2.33947e-06
1.04638e-06
-2.81096e-06
9.31541e-07
-3.18102e-06
7.33279e-07
-3.41881e-06
4.7219e-07
-3.5045e-06
1.70646e-07
-3.43002e-06
-1.4751e-07
-3.19978e-06
-4.56947e-07
-2.83124e-06
-7.31039e-07
-2.35492e-06
-9.42695e-07
-1.8136e-06
-1.0662e-06
-1.2599e-06
-1.08041e-06
-7.51828e-07
-9.73487e-07
-3.45743e-07
-7.48911e-07
-8.70261e-08
-4.34159e-07
-1.02141e-07
-1.44598e-07
2.56336e-07
-5.23341e-07
8.24322e-07
-1.07736e-06
1.30422e-06
-1.74068e-06
1.62501e-06
-2.44481e-06
1.76439e-06
-3.12426e-06
1.72584e-06
-3.72093e-06
1.52821e-06
-4.18684e-06
1.19919e-06
-4.48584e-06
7.71183e-07
-4.5946e-06
2.7941e-07
-4.50348e-06
-2.38632e-07
-4.21724e-06
-7.43183e-07
-3.75578e-06
-1.1925e-06
-3.15441e-06
-1.54407e-06
-2.46324e-06
-1.75737e-06
-1.74503e-06
-1.79863e-06
-1.07083e-06
-1.64769e-06
-5.13369e-07
-1.30637e-06
-1.38823e-07
-8.08704e-07
-2.40965e-07
-1.9287e-07
4.49206e-07
-6.82506e-07
1.31396e-06
-1.3807e-06
2.00241e-06
-2.1995e-06
2.44381e-06
-3.05479e-06
2.61968e-06
-3.87032e-06
2.54137e-06
-4.58065e-06
2.23854e-06
-5.13292e-06
1.75146e-06
-5.48771e-06
1.12597e-06
-5.61954e-06
4.11232e-07
-5.51735e-06
-3.40818e-07
-5.18533e-06
-1.0752e-06
-4.64387e-06
-1.73396e-06
-3.93046e-06
-2.25748e-06
-3.09999e-06
-2.58783e-06
-2.22361e-06
-2.67501e-06
-1.38537e-06
-2.48593e-06
-6.76395e-07
-2.01534e-06
-1.87164e-07
-1.29793e-06
-4.2813e-07
-2.39168e-07
6.88374e-07
-8.37776e-07
1.91257e-06
-1.67826e-06
2.84289e-06
-2.64921e-06
3.41476e-06
-3.6501e-06
3.62057e-06
-4.5943e-06
3.48557e-06
-5.41055e-06
3.05479e-06
-6.04301e-06
2.38392e-06
-6.45075e-06
1.53372e-06
-6.6072e-06
5.67679e-07
-6.50003e-06
-4.47992e-07
-6.13182e-06
-1.44341e-06
-5.52152e-06
-2.34426e-06
-4.70635e-06
-3.07265e-06
-3.74362e-06
-3.55056e-06
-2.71144e-06
-3.70719e-06
-1.70712e-06
-3.49024e-06
-8.42463e-07
-2.88001e-06
-2.35541e-07
-1.90486e-06
-6.63672e-07
-2.86034e-07
9.74408e-07
-9.94732e-07
2.62126e-06
-1.9775e-06
3.82566e-06
-3.09783e-06
4.53509e-06
-4.23825e-06
4.76098e-06
-5.30268e-06
4.55e-06
-6.2159e-06
3.96801e-06
-6.92138e-06
3.08941e-06
-7.37876e-06
1.99109e-06
-7.56165e-06
7.50575e-07
-7.45666e-06
-5.52981e-07
-7.06376e-06
-1.83631e-06
-6.39825e-06
-3.00977e-06
-5.49411e-06
-3.97678e-06
-4.40803e-06
-4.63665e-06
-3.22286e-06
-4.89235e-06
-2.04884e-06
-4.66426e-06
-1.02048e-06
-3.90837e-06
-2.87679e-07
-2.63765e-06
-9.51352e-07
-3.35767e-07
1.31017e-06
-1.15851e-06
3.444e-06
-2.28439e-06
4.95155e-06
-3.54937e-06
5.80007e-06
-4.81894e-06
6.03056e-06
-5.98945e-06
5.72052e-06
-6.98476e-06
4.96331e-06
-7.75098e-06
3.85563e-06
-8.25117e-06
2.49129e-06
-8.46108e-06
9.60478e-07
-8.36676e-06
-6.47301e-07
-7.96455e-06
-2.23852e-06
-7.26356e-06
-3.71077e-06
-6.29062e-06
-4.94972e-06
-5.09727e-06
-5.83e-06
-3.76716e-06
-6.22247e-06
-2.42147e-06
-6.00995e-06
-1.21902e-06
-5.11082e-06
-3.472e-07
-3.50947e-06
-1.29855e-06
-3.90609e-07
1.70078e-06
-1.33373e-06
4.38712e-06
-2.60271e-06
6.22053e-06
-4.00241e-06
7.19976e-06
-5.38195e-06
7.4101e-06
-6.63362e-06
6.97219e-06
-7.6852e-06
6.01489e-06
-8.49037e-06
4.6608e-06
-9.01976e-06
3.02068e-06
-9.25406e-06
1.19478e-06
-9.17994e-06
-7.21424e-07
-8.78926e-06
-2.62919e-06
-8.08195e-06
-4.41808e-06
-7.07267e-06
-5.959e-06
-5.80122e-06
-7.10144e-06
-4.34529e-06
-7.6784e-06
-2.83239e-06
-7.52285e-06
-1.44585e-06
-6.49736e-06
-4.17731e-07
-4.53759e-06
-1.71628e-06
-4.53366e-07
2.15415e-06
-1.52538e-06
5.45913e-06
-2.93425e-06
7.6294e-06
-4.44906e-06
8.71458e-06
-5.9048e-06
8.86584e-06
-7.19581e-06
8.26319e-06
-8.26119e-06
7.08028e-06
-9.06921e-06
5.46881e-06
-9.60372e-06
3.55519e-06
-9.85426e-06
1.44532e-06
-9.81003e-06
-7.65648e-07
-9.45807e-06
-2.98115e-06
-8.786e-06
-5.09014e-06
-7.79023e-06
-6.95477e-06
-6.48988e-06
-8.40179e-06
-4.94618e-06
-9.22211e-06
-3.28391e-06
-9.18512e-06
-1.70804e-06
-8.07323e-06
-5.0339e-07
-5.74224e-06
-2.21967e-06
-5.28525e-07
2.68267e-06
-1.74025e-06
6.67086e-06
-3.27905e-06
9.1682e-06
-4.87319e-06
1.03087e-05
-6.349e-06
1.03417e-05
-7.61314e-06
9.52733e-06
-8.6269e-06
8.09403e-06
-9.38233e-06
6.22425e-06
-9.88361e-06
4.05647e-06
-1.0134e-05
1.69572e-06
-1.0128e-05
-7.71647e-07
-9.84823e-06
-3.26094e-06
-9.26748e-06
-5.67089e-06
-8.3574e-06
-7.86486e-06
-7.10536e-06
-9.65383e-06
-5.54104e-06
-1.07864e-05
-3.77082e-06
-1.09553e-05
-2.01218e-06
-9.83188e-06
-6.09676e-07
-7.14474e-06
-2.82935e-06
-6.24116e-07
3.30679e-06
-1.98882e-06
8.03556e-06
-3.63461e-06
1.0814e-05
-5.24597e-06
1.19201e-05
-6.6529e-06
1.17486e-05
-7.79093e-06
1.06654e-05
-8.65835e-06
8.96146e-06
-9.28225e-06
6.84814e-06
-9.69475e-06
4.46898e-06
-9.91796e-06
1.91893e-06
-9.95497e-06
-7.34643e-07
-9.78559e-06
-3.43032e-06
-9.36691e-06
-6.08957e-06
-8.64049e-06
-8.59128e-06
-7.55004e-06
-1.07443e-05
-6.07406e-06
-1.22624e-05
-4.27572e-06
-1.27537e-05
-2.36432e-06
-1.17433e-05
-7.44952e-07
-8.76411e-06
-3.5743e-06
-7.54739e-07
4.06153e-06
-2.28648e-06
9.5673e-06
-3.99104e-06
1.25186e-05
-5.51519e-06
1.34442e-05
-6.71773e-06
1.29511e-05
-7.5885e-06
1.15361e-05
-8.18149e-06
9.55445e-06
-8.57014e-06
7.23678e-06
-8.8208e-06
4.71965e-06
-8.97816e-06
2.07628e-06
-9.05695e-06
-6.55844e-07
-9.03731e-06
-3.44996e-06
-8.8627e-06
-6.26418e-06
-8.44315e-06
-9.01083e-06
-7.66929e-06
-1.15181e-05
-6.44645e-06
-1.34852e-05
-4.75895e-06
-1.44412e-05
-2.76804e-06
-1.37342e-05
-9.22786e-07
-1.06094e-05
-4.49709e-06
-9.46003e-07
5.00753e-06
-2.65106e-06
1.12724e-05
-4.31589e-06
1.41834e-05
-5.58077e-06
1.47091e-05
-6.38072e-06
1.37511e-05
-6.79567e-06
1.19511e-05
-6.95487e-06
9.71364e-06
-6.98555e-06
7.26747e-06
-6.98943e-06
4.72353e-06
-7.0333e-06
2.12015e-06
-7.14486e-06
-5.44292e-07
-7.3088e-06
-3.28602e-06
-7.46189e-06
-6.11109e-06
-7.48892e-06
-8.9838e-06
-7.2265e-06
-1.17806e-05
-6.4888e-06
-1.42229e-05
-5.13715e-06
-1.57928e-05
-3.21678e-06
-1.56546e-05
-1.16489e-06
-1.26613e-05
-5.66198e-06
-1.23814e-06
6.24567e-06
-3.08598e-06
1.31202e-05
-4.51289e-06
1.56103e-05
-5.24247e-06
1.54387e-05
-5.36608e-06
1.38747e-05
-5.09538e-06
1.16804e-05
-4.64675e-06
9.26501e-06
-4.19687e-06
6.81759e-06
-3.87303e-06
4.39969e-06
-3.75598e-06
2.00311e-06
-3.88358e-06
-4.16694e-07
-4.24982e-06
-2.91978e-06
-4.79732e-06
-5.56359e-06
-5.40384e-06
-8.37728e-06
-5.86849e-06
-1.13159e-05
-5.9137e-06
-1.41777e-05
-5.23724e-06
-1.64693e-05
-3.66844e-06
-1.72234e-05
-1.50069e-06
-1.4829e-05
-7.16267e-06
-1.67454e-06
7.92021e-06
-3.51581e-06
1.49615e-05
-4.32013e-06
1.64146e-05
-4.09647e-06
1.5215e-05
-3.20356e-06
1.29818e-05
-2.01205e-06
1.04889e-05
-8.10911e-07
8.06388e-06
2.01652e-07
5.80502e-06
8.99331e-07
3.70201e-06
1.20629e-06
1.69615e-06
1.08316e-06
-2.93569e-07
5.23375e-07
-2.36e-06
-4.38693e-07
-4.60152e-06
-1.70585e-06
-7.11012e-06
-3.08286e-06
-9.93891e-06
-4.23832e-06
-1.30223e-05
-4.70035e-06
-1.60073e-05
-3.96951e-06
-1.79542e-05
-1.94559e-06
-1.68529e-05
-9.10826e-06
-2.23121e-06
1.01514e-05
-3.59218e-06
1.63224e-05
-3.08168e-06
1.59041e-05
-1.35025e-06
1.34836e-05
8.87968e-07
1.07435e-05
3.14323e-06
8.23362e-06
5.12398e-06
6.08313e-06
6.67265e-06
4.25636e-06
7.70853e-06
2.66612e-06
8.18876e-06
1.21592e-06
8.08641e-06
-1.91213e-07
7.38263e-06
-1.65622e-06
6.0722e-06
-3.29109e-06
4.18679e-06
-5.22471e-06
1.84437e-06
-7.59649e-06
-6.68768e-07
-1.05091e-05
-2.79662e-06
-1.38794e-05
-3.6643e-06
-1.70865e-05
-2.41218e-06
-1.8105e-05
-1.15204e-05
-2.57406e-06
1.27255e-05
-2.18458e-06
1.5933e-05
7.15476e-07
1.3004e-05
4.46501e-06
9.73407e-06
8.12648e-06
7.08207e-06
1.12925e-05
5.06763e-06
1.38179e-05
3.55771e-06
1.56752e-05
2.39905e-06
1.68776e-05
1.46367e-06
1.74404e-05
6.53178e-07
1.73621e-05
-1.12919e-07
1.66171e-05
-9.11228e-07
1.51552e-05
-1.82921e-06
1.29134e-05
-2.98291e-06
9.85381e-06
-4.53686e-06
6.05625e-06
-6.71159e-06
1.90875e-06
-9.73191e-06
-1.56141e-06
-1.36164e-05
-2.45885e-06
-1.72076e-05
-1.39793e-05
-7.84996e-07
1.35105e-05
4.08045e-06
1.10675e-05
1.02963e-05
6.78816e-06
1.57911e-05
4.23928e-06
2.01539e-05
2.71925e-06
2.34523e-05
1.76925e-06
2.58535e-05
1.1565e-06
2.7513e-05
7.39553e-07
2.85447e-05
4.31983e-07
2.90168e-05
1.81123e-07
2.89527e-05
-4.88712e-08
2.83299e-05
-2.88406e-07
2.7074e-05
-5.73307e-07
2.50485e-05
-9.57431e-07
2.20466e-05
-1.53496e-06
1.78119e-05
-2.47686e-06
1.21702e-05
-4.09018e-06
5.47668e-06
-6.92286e-06
-1.29437e-07
-1.16015e-05
-1.41087e-05
1.35105e-05
2.4578e-05
3.13661e-05
3.56054e-05
3.83247e-05
4.00939e-05
4.12504e-05
4.199e-05
4.2422e-05
4.26031e-05
4.25542e-05
4.22658e-05
4.16925e-05
4.07351e-05
3.92001e-05
3.67232e-05
3.26331e-05
2.57102e-05
1.41087e-05
)
;

boundaryField
{
    movingWall
    {
        type            calculated;
        value           uniform 0;
    }
    fixedWalls
    {
        type            calculated;
        value           uniform 0;
    }
    frontAndBack
    {
        type            empty;
        value           nonuniform 0();
    }
}


// ************************************************************************* //
