/*--------------------------------*- C++ -*----------------------------------*\
| RapidCFD by simFlow (sim-flow.com)                                          |
\*---------------------------------------------------------------------------*/
FoamFile
{
    version     2.0;
    format      ascii;
    class       volVectorField;
    location    "0.1";
    object      U;
}
// * * * * * * * * * * * * * * * * * * * * * * * * * * * * * * * * * * * * * //

dimensions      [0 1 -1 0 0 0 0];

internalField   nonuniform List<vector> 
400
(
(0.000252283 -0.000248909 0)
(0.000140064 0.000111531 0)
(-0.00117352 0.000562756 0)
(-0.00346876 0.000881699 0)
(-0.00635364 0.00104168 0)
(-0.00943325 0.0010576 0)
(-0.012355 0.000954105 0)
(-0.0148271 0.000757496 0)
(-0.0166248 0.0004928 0)
(-0.0175902 0.000183998 0)
(-0.0176346 -0.000144486 0)
(-0.0167419 -0.000466309 0)
(-0.0149747 -0.000752288 0)
(-0.0124803 -0.00097041 0)
(-0.00949357 -0.00108706 0)
(-0.00633433 -0.00107015 0)
(-0.00339079 -0.000895127 0)
(-0.00108448 -0.000554847 0)
(0.000194621 -9.05738e-05 0)
(0.000266582 0.0002611 0)
(-7.71623e-05 -0.000167694 0)
(-0.00160515 0.00163929 0)
(-0.00567 0.0036034 0)
(-0.0116713 0.00501478 0)
(-0.0188153 0.00572008 0)
(-0.0262929 0.0057369 0)
(-0.0333323 0.00515084 0)
(-0.0392659 0.00407632 0)
(-0.0435662 0.00263766 0)
(-0.0458613 0.000964151 0)
(-0.0459452 -0.000808512 0)
(-0.0437881 -0.00253532 0)
(-0.0395473 -0.00406102 0)
(-0.0335746 -0.00522345 0)
(-0.026415 -0.00586326 0)
(-0.0187865 -0.00584262 0)
(-0.0115263 -0.00507639 0)
(-0.00549502 -0.00357745 0)
(-0.00148872 -0.00155496 0)
(-4.27126e-05 0.000225705 0)
(-0.000526187 0.00108784 0)
(-0.00369559 0.0057137 0)
(-0.010545 0.0101833 0)
(-0.0199096 0.0133531 0)
(-0.0306391 0.0148851 0)
(-0.0416518 0.0147781 0)
(-0.0519081 0.0132019 0)
(-0.0604985 0.0104146 0)
(-0.0667001 0.00671666 0)
(-0.0700023 0.00243217 0)
(-0.0701227 -0.00209397 0)
(-0.0670222 -0.00649482 0)
(-0.0609177 -0.0103835 0)
(-0.0522905 -0.0133649 0)
(-0.0418814 -0.0150628 0)
(-0.030662 -0.0151668 0)
(-0.0197582 -0.0135058 0)
(-0.010327 -0.010143 0)
(-0.0035361 -0.00553284 0)
(-0.000475163 -0.000946627 0)
(-0.00092409 0.00346564 0)
(-0.00566808 0.0121714 0)
(-0.015241 0.0198414 0)
(-0.0278077 0.025096 0)
(-0.0418228 0.0274854 0)
(-0.0559627 0.0270281 0)
(-0.0689865 0.0240126 0)
(-0.07982 0.0188799 0)
(-0.0876148 0.0121508 0)
(-0.0917727 0.00439364 0)
(-0.0919604 -0.00378506 0)
(-0.0881259 -0.0117415 0)
(-0.0805132 -0.0188002 0)
(-0.0696745 -0.0242755 0)
(-0.0564712 -0.027518 0)
(-0.0420495 -0.0279945 0)
(-0.0277617 -0.0254039 0)
(-0.0150424 -0.0198212 0)
(-0.00548603 -0.011887 0)
(-0.000858453 -0.00321442 0)
(-0.00127376 0.00684975 0)
(-0.00750804 0.020871 0)
(-0.019734 0.0323832 0)
(-0.0354102 0.0399465 0)
(-0.0525603 0.0431213 0)
(-0.0696175 0.0420286 0)
(-0.0851698 0.0371339 0)
(-0.0980244 0.0291032 0)
(-0.107255 0.0187111 0)
(-0.11221 0.00679726 0)
(-0.112522 -0.00574587 0)
(-0.108119 -0.0179725 0)
(-0.0992411 -0.0288892 0)
(-0.0864642 -0.0374822 0)
(-0.0707145 -0.0427804 0)
(-0.0532659 -0.0439662 0)
(-0.0356754 -0.0405341 0)
(-0.0196748 -0.0324803 0)
(-0.00734753 -0.0205214 0)
(-0.00119964 -0.00647649 0)
(-0.00160205 0.0111721 0)
(-0.00928889 0.0317553 0)
(-0.0241365 0.0477745 0)
(-0.0428757 0.0578575 0)
(-0.063072 0.0617084 0)
(-0.0829108 0.0596606 0)
(-0.100831 0.0524362 0)
(-0.115557 0.0409795 0)
(-0.126125 0.0263493 0)
(-0.131861 0.00967134 0)
(-0.132376 -0.00787007 0)
(-0.127569 -0.0250224 0)
(-0.117645 -0.0404619 0)
(-0.103157 -0.0528179 0)
(-0.0850451 -0.060745 0)
(-0.0646678 -0.0630597 0)
(-0.0437729 -0.0589435 0)
(-0.0244148 -0.0481872 0)
(-0.00922993 -0.0314569 0)
(-0.00153341 -0.0106942 0)
(-0.00193498 0.0164182 0)
(-0.0110944 0.0448195 0)
(-0.0285838 0.0660077 0)
(-0.0503641 0.0787899 0)
(-0.0735169 0.0831611 0)
(-0.0959845 0.0798005 0)
(-0.116087 0.0697869 0)
(-0.132512 0.0544044 0)
(-0.144303 0.0350237 0)
(-0.150802 0.0130582 0)
(-0.151612 -0.0100296 0)
(-0.146594 -0.0326976 0)
(-0.135889 -0.0532987 0)
(-0.119971 -0.0700879 0)
(-0.0997269 -0.0812908 0)
(-0.0765462 -0.0852575 0)
(-0.0523352 -0.0807134 0)
(-0.0294857 -0.0670759 0)
(-0.0112605 -0.0448078 0)
(-0.00189593 -0.0159045 0)
(-0.002296 0.0226229 0)
(-0.0130037 0.0601156 0)
(-0.0331979 0.0870967 0)
(-0.0579878 0.10268 0)
(-0.0839411 0.107332 0)
(-0.108779 0.102243 0)
(-0.130757 0.0889681 0)
(-0.148594 0.0692012 0)
(-0.161405 0.0446461 0)
(-0.168596 0.0169886 0)
(-0.169792 -0.0120682 0)
(-0.164813 -0.0407375 0)
(-0.153694 -0.0670819 0)
(-0.136764 -0.0889845 0)
(-0.114774 -0.104192 0)
(-0.0890477 -0.110474 0)
(-0.0615833 -0.105917 0)
(-0.0350987 -0.0893397 0)
(-0.0135663 -0.0607901 0)
(-0.0023228 -0.022219 0)
(-0.00270916 0.0298654 0)
(-0.0150948 0.0777492 0)
(-0.0380816 0.111059 0)
(-0.0657905 0.129399 0)
(-0.0942421 0.133949 0)
(-0.120988 0.126622 0)
(-0.144308 0.109597 0)
(-0.163057 0.08505 0)
(-0.176517 0.0550278 0)
(-0.184228 0.0214513 0)
(-0.185879 -0.0138043 0)
(-0.18125 -0.0487867 0)
(-0.170236 -0.0813388 0)
(-0.152941 -0.109006 0)
(-0.129855 -0.129028 0)
(-0.102096 -0.138471 0)
(-0.0716276 -0.134557 0)
(-0.0414313 -0.1152 0)
(-0.0162738 -0.0797142 0)
(-0.00285209 -0.029822 0)
(-0.00320708 0.0382733 0)
(-0.0174628 0.0978709 0)
(-0.043332 0.137877 0)
(-0.0737397 0.158677 0)
(-0.104134 0.162513 0)
(-0.131996 0.152302 0)
(-0.15578 0.13102 0)
(-0.174624 0.101395 0)
(-0.188106 0.0658095 0)
(-0.196001 0.0263499 0)
(-0.198117 -0.0150411 0)
(-0.194215 -0.0563693 0)
(-0.184016 -0.0953766 0)
(-0.167306 -0.129357 0)
(-0.144163 -0.155053 0)
(-0.115297 -0.16872 0)
(-0.0824154 -0.166453 0)
(-0.0486178 -0.144836 0)
(-0.0195211 -0.101965 0)
(-0.00353209 -0.0389738 0)
(-0.00384542 0.0480433 0)
(-0.0202533 0.120677 0)
(-0.0490631 0.167441 0)
(-0.0817131 0.189998 0)
(-0.113089 0.192169 0)
(-0.14079 0.178242 0)
(-0.163671 0.152188 0)
(-0.181362 0.117345 0)
(-0.1939 0.0763835 0)
(-0.201413 0.0314514 0)
(-0.203905 -0.0155904 0)
(-0.201151 -0.062877 0)
(-0.192683 -0.108227 0)
(-0.177883 -0.148839 0)
(-0.156241 -0.181044 0)
(-0.127789 -0.200227 0)
(-0.0936482 -0.201071 0)
(-0.0567338 -0.178281 0)
(-0.0234795 -0.127973 0)
(-0.00443531 -0.0500288 0)
(-0.00472875 0.0594923 0)
(-0.0237117 0.146415 0)
(-0.0554235 0.199463 0)
(-0.0894442 0.222441 0)
(-0.120217 0.221521 0)
(-0.145795 0.20283 0)
(-0.165771 0.171527 0)
(-0.180526 0.13157 0)
(-0.190745 0.0858209 0)
(-0.19703 0.0363313 0)
(-0.199663 -0.015309 0)
(-0.198486 -0.0675805 0)
(-0.19285 -0.118617 0)
(-0.181684 -0.165763 0)
(-0.163731 -0.205133 0)
(-0.138028 -0.231297 0)
(-0.104634 -0.237284 0)
(-0.0657534 -0.215241 0)
(-0.0283846 -0.158173 0)
(-0.00568312 -0.0634782 0)
(-0.00605652 0.073161 0)
(-0.0282509 0.175386 0)
(-0.062569 0.23331 0)
(-0.0963586 0.254432 0)
(-0.124 0.248395 0)
(-0.144581 0.223699 0)
(-0.158887 0.186819 0)
(-0.16835 0.142238 0)
(-0.174461 0.0928284 0)
(-0.178384 0.0403333 0)
(-0.180746 -0.0141466 0)
(-0.181511 -0.0696769 0)
(-0.179915 -0.124987 0)
(-0.174457 -0.177895 0)
(-0.163043 -0.224651 0)
(-0.143425 -0.259255 0)
(-0.114008 -0.273016 0)
(-0.0754308 -0.254805 0)
(-0.0345701 -0.192911 0)
(-0.00748854 -0.0800356 0)
(-0.00819794 0.089994 0)
(-0.0345128 0.207877 0)
(-0.0704852 0.267667 0)
(-0.101147 0.28334 0)
(-0.121751 0.269522 0)
(-0.133335 0.237556 0)
(-0.138434 0.195152 0)
(-0.139769 0.147035 0)
(-0.139697 0.0957829 0)
(-0.139935 0.0425754 0)
(-0.141446 -0.0121923 0)
(-0.144373 -0.068386 0)
(-0.147956 -0.125603 0)
(-0.150416 -0.182526 0)
(-0.148919 -0.236047 0)
(-0.13979 -0.28016 0)
(-0.119191 -0.304755 0)
(-0.0849886 -0.294931 0)
(-0.0424601 -0.23222 0)
(-0.0102194 -0.100777 0)
(-0.0117735 0.1116 0)
(-0.0432909 0.243855 0)
(-0.0783738 0.299867 0)
(-0.100759 0.304881 0)
(-0.108541 0.280227 0)
(-0.105977 0.24015 0)
(-0.0978269 0.193072 0)
(-0.0881099 0.143384 0)
(-0.0798689 0.0929289 0)
(-0.0751672 0.0420551 0)
(-0.0751827 -0.00969921 0)
(-0.0802524 -0.0631159 0)
(-0.0897917 -0.118838 0)
(-0.102072 -0.176762 0)
(-0.113916 -0.235062 0)
(-0.120477 -0.288651 0)
(-0.115377 -0.326977 0)
(-0.0923294 -0.33161 0)
(-0.0523395 -0.275276 0)
(-0.0144345 -0.127299 0)
(-0.0175544 0.14064 0)
(-0.0547924 0.282077 0)
(-0.0828565 0.324602 0)
(-0.088204 0.31232 0)
(-0.0752902 0.274282 0)
(-0.052831 0.226594 0)
(-0.0277523 0.177129 0)
(-0.00485318 0.129008 0)
(0.0127281 0.0828292 0)
(0.0230524 0.0379142 0)
(0.0250109 -0.00705355 0)
(0.0181364 -0.053689 0)
(0.00264088 -0.10364 0)
(-0.0202908 -0.158176 0)
(-0.0479254 -0.217338 0)
(-0.0751649 -0.27819 0)
(-0.0936675 -0.331629 0)
(-0.0921308 -0.357546 0)
(-0.0633063 -0.3192 0)
(-0.0206382 -0.161939 0)
(-0.025453 0.181705 0)
(-0.0657951 0.317734 0)
(-0.0733883 0.331291 0)
(-0.0481784 0.295301 0)
(-0.00573258 0.244095 0)
(0.0410093 0.192261 0)
(0.0843918 0.144938 0)
(0.120231 0.102884 0)
(0.146364 0.0650799 0)
(0.161691 0.0298682 0)
(0.165584 -0.00465898 0)
(0.157592 -0.0405825 0)
(0.137417 -0.0801724 0)
(0.105166 -0.125823 0)
(0.0620383 -0.179618 0)
(0.0116367 -0.241909 0)
(-0.0379439 -0.307772 0)
(-0.0717431 -0.360055 0)
(-0.0700801 -0.356548 0)
(-0.0279167 -0.208354 0)
(-0.02965 0.239178 0)
(-0.0608521 0.335754 0)
(-0.0219771 0.300468 0)
(0.050472 0.240074 0)
(0.127459 0.182884 0)
(0.196848 0.135322 0)
(0.254132 0.0973366 0)
(0.298006 0.066801 0)
(0.328551 0.0413225 0)
(0.346177 0.0187657 0)
(0.351084 -0.00278671 0)
(0.343022 -0.0252391 0)
(0.321212 -0.0507463 0)
(0.284419 -0.0819955 0)
(0.23139 -0.122387 0)
(0.162044 -0.175609 0)
(0.0798082 -0.243375 0)
(-0.00324128 -0.31909 0)
(-0.0546891 -0.368582 0)
(-0.0284628 -0.267608 0)
(0.00808426 0.281865 0)
(0.0197818 0.294971 0)
(0.139052 0.210962 0)
(0.264424 0.143457 0)
(0.364302 0.0971611 0)
(0.440265 0.065751 0)
(0.496611 0.0442131 0)
(0.536714 0.0288667 0)
(0.563265 0.0171867 0)
(0.578113 0.00748063 0)
(0.582186 -0.00149029 0)
(0.575509 -0.0108343 0)
(0.557139 -0.0218304 0)
(0.524989 -0.0363145 0)
(0.47566 -0.0572373 0)
(0.40445 -0.0893619 0)
(0.305119 -0.139721 0)
(0.173386 -0.21637 0)
(0.0411613 -0.311646 0)
(0.0184289 -0.299994 0)
(0.299606 0.146093 0)
(0.396276 0.127504 0)
(0.557421 0.0760886 0)
(0.67448 0.0437204 0)
(0.743869 0.0255679 0)
(0.78712 0.0152377 0)
(0.815438 0.00920822 0)
(0.833896 0.00550633 0)
(0.845318 0.00302547 0)
(0.8513 0.00114916 0)
(0.852595 -0.000498126 0)
(0.849315 -0.00221261 0)
(0.84094 -0.00433523 0)
(0.826091 -0.00742025 0)
(0.80204 -0.0125283 0)
(0.763594 -0.0217691 0)
(0.699092 -0.0392797 0)
(0.583945 -0.0726578 0)
(0.415826 -0.127867 0)
(0.30882 -0.149468 0)
)
;

boundaryField
{
    movingWall
    {
        type            fixedValue;
        value           uniform (1 0 0);
    }
    fixedWalls
    {
        type            fixedValue;
        value           uniform (0 0 0);
    }
    frontAndBack
    {
        type            empty;
    }
}


// ************************************************************************* //
