/*--------------------------------*- C++ -*----------------------------------*\
| RapidCFD by simFlow (sim-flow.com)                                          |
\*---------------------------------------------------------------------------*/
FoamFile
{
    version     2.0;
    format      ascii;
    class       volScalarField;
    location    "0.3";
    object      p;
}
// * * * * * * * * * * * * * * * * * * * * * * * * * * * * * * * * * * * * * //

dimensions      [0 2 -2 0 0 0 0];

internalField   nonuniform List<scalar> 
400
(
5.66109e-06
-0.00581978
-0.0129568
-0.0184086
-0.0204258
-0.018232
-0.0117676
-0.00147783
0.0118426
0.0271536
0.0432481
0.058826
0.0725811
0.0833106
0.0900549
0.0922693
0.0900286
0.0842472
0.0768846
0.0710716
0.00578492
-0.000213472
-0.00579884
-0.00953715
-0.0105933
-0.00842705
-0.00296438
0.00547936
0.0163077
0.028716
0.0417536
0.0543894
0.0655896
0.0744129
0.0801233
0.0823189
0.0810808
0.0770588
0.0712785
0.0653228
0.0133387
0.00503786
-0.000990714
-0.00441828
-0.00526793
-0.00325886
0.0016074
0.0090324
0.0185066
0.0293535
0.0407694
0.0518734
0.0617721
0.0696398
0.0748105
0.0768818
0.0758457
0.0720903
0.0658104
0.057541
0.0201424
0.00869966
0.00123004
-0.00266413
-0.00371752
-0.00188057
0.00273606
0.00978917
0.0187848
0.0290993
0.0399961
0.050658
0.0602367
0.0679197
0.0730071
0.0750056
0.0737702
0.0694609
0.0616083
0.0501085
0.0245046
0.0097765
0.000593733
-0.00398268
-0.00529779
-0.00350274
0.00117941
0.00833913
0.0174665
0.0279534
0.0390892
0.0500741
0.0600529
0.068169
0.0736305
0.0758021
0.0743737
0.0692948
0.0595312
0.0445435
0.0251803
0.0071533
-0.00379815
-0.00905309
-0.0105078
-0.00849546
-0.00335212
0.00443413
0.014318
0.0256836
0.0378183
0.0499078
0.0610525
0.0703075
0.0767392
0.0795216
0.0781439
0.0723389
0.0605452
0.0418968
0.0210962
-0.000258934
-0.0129305
-0.0187052
-0.0200254
-0.0174092
-0.0113134
-0.00231468
0.00899544
0.0219812
0.0359146
0.0499493
0.063117
0.0743501
0.0825268
0.0865746
0.085726
0.0794526
0.0656265
0.0430786
0.0111461
-0.0136143
-0.0278707
-0.0338497
-0.0345987
-0.0308524
-0.0232075
-0.0123397
0.00111036
0.0164894
0.033058
0.049939
0.0660887
0.0802952
0.091206
0.0974354
0.0978758
0.0916417
0.0759024
0.0491233
-0.00596298
-0.0342619
-0.0498651
-0.0555435
-0.0550848
-0.049509
-0.0395877
-0.0261073
-0.00975099
0.00882916
0.0289071
0.0495995
0.0698034
0.0881603
0.103053
0.112707
0.115556
0.110198
0.0928403
0.061418
-0.0318519
-0.0638707
-0.0804114
-0.0850015
-0.0824143
-0.0740723
-0.0609746
-0.0440301
-0.0239448
-0.00133017
0.0231523
0.0486676
0.074102
0.0979785
0.118402
0.133132
0.139994
0.136824
0.118447
0.0819399
-0.0686608
-0.104597
-0.121338
-0.123584
-0.117509
-0.10512
-0.0877115
-0.0663185
-0.0416298
-0.0141483
0.0156128
0.0469603
0.0788627
0.1098
0.13763
0.159592
0.172733
0.173784
0.155526
0.113576
-0.119395
-0.15935
-0.174908
-0.17275
-0.161141
-0.142922
-0.119752
-0.0927697
-0.0625699
-0.0294399
0.00638083
0.0444811
0.0840625
0.12371
0.161143
0.193092
0.215674
0.224083
0.208056
0.160638
-0.18862
-0.232234
-0.243931
-0.233941
-0.213687
-0.187147
-0.156365
-0.122494
-0.08589
-0.0464641
-0.0040064
0.0415468
0.0898498
0.139837
0.189326
0.234696
0.271081
0.29167
0.281748
0.229781
-0.283965
-0.329296
-0.331824
-0.308272
-0.274701
-0.236432
-0.195757
-0.153602
-0.109832
-0.0637369
-0.0144295
0.0388717
0.0965622
0.158284
0.222381
0.285294
0.341403
0.381581
0.384919
0.331839
-0.419309
-0.459662
-0.442342
-0.395784
-0.342122
-0.287732
-0.234608
-0.182922
-0.131601
-0.0789765
-0.0232054
0.0374838
0.104561
0.178846
0.259869
0.344977
0.428623
0.499706
0.52968
0.485396
-0.620522
-0.636735
-0.578669
-0.494186
-0.411233
-0.335651
-0.267773
-0.20597
-0.147528
-0.0893744
-0.0284173
0.038357
0.113815
0.20048
0.299983
0.412032
0.533036
0.651781
0.732777
0.7224
-0.935915
-0.878507
-0.741734
-0.597942
-0.474386
-0.372652
-0.288861
-0.217755
-0.153945
-0.0924554
-0.0287085
0.0417045
0.123272
0.220726
0.338934
0.482162
0.652003
0.841348
1.01528
1.09751
-1.47642
-1.20662
-0.920496
-0.691382
-0.517299
-0.387538
-0.290055
-0.21333
-0.148116
-0.0872072
-0.024569
0.0454662
0.128946
0.233079
0.367111
0.542685
0.7713
1.05932
1.40329
1.73015
-2.53964
-1.63054
-1.04443
-0.710953
-0.495745
-0.352088
-0.254525
-0.183577
-0.126162
-0.0735872
-0.0192606
0.0427956
0.119221
0.218791
0.35482
0.547991
0.8264
1.23659
1.91168
2.9242
-4.36666
-2.04463
-0.973537
-0.563176
-0.357842
-0.240142
-0.170115
-0.123777
-0.0874748
-0.0535028
-0.0166462
0.0276696
0.0846167
0.161739
0.27242
0.442108
0.718227
1.22572
2.41104
4.84854
)
;

boundaryField
{
    movingWall
    {
        type            zeroGradient;
    }
    fixedWalls
    {
        type            zeroGradient;
    }
    frontAndBack
    {
        type            empty;
    }
}


// ************************************************************************* //
