/*--------------------------------*- C++ -*----------------------------------*\
| RapidCFD by simFlow (sim-flow.com)                                          |
\*---------------------------------------------------------------------------*/
FoamFile
{
    version     2.0;
    format      ascii;
    class       surfaceScalarField;
    location    "0.3";
    object      phi;
}
// * * * * * * * * * * * * * * * * * * * * * * * * * * * * * * * * * * * * * //

dimensions      [0 3 -1 0 0 0 0];

internalField   nonuniform List<scalar> 
760
(
1.42254e-08
-1.42719e-08
-2.22131e-08
3.64399e-08
-1.14269e-07
9.20565e-08
-2.45491e-07
1.31221e-07
-3.96092e-07
1.50601e-07
-5.47357e-07
1.51265e-07
-6.83178e-07
1.35822e-07
-7.90647e-07
1.07469e-07
-8.60189e-07
6.95424e-08
-8.85622e-07
2.5433e-08
-8.64301e-07
-2.13212e-08
-7.97371e-07
-6.69299e-08
-6.9007e-07
-1.07301e-07
-5.51962e-07
-1.38109e-07
-3.96936e-07
-1.55026e-07
-2.42745e-07
-1.54191e-07
-1.09732e-07
-1.33014e-07
-1.84164e-08
-9.13158e-08
1.56885e-08
-3.41059e-08
1.56887e-08
-3.42185e-08
1.99453e-08
-1.80376e-07
1.82597e-07
-4.33988e-07
3.45668e-07
-7.6443e-07
4.61663e-07
-1.1322e-06
5.18376e-07
-1.49723e-06
5.16294e-07
-1.82332e-06
4.61912e-07
-2.08052e-06
3.64665e-07
-2.24626e-06
2.35279e-07
-2.30602e-06
8.51966e-08
-2.25388e-06
-7.34605e-08
-2.09303e-06
-2.2778e-07
-1.83624e-06
-3.64087e-07
-1.50603e-06
-4.68326e-07
-1.13407e-06
-5.26983e-07
-7.59515e-07
-5.28748e-07
-4.25397e-07
-4.67132e-07
-1.72691e-07
-3.44022e-07
-3.08027e-08
-1.75995e-07
-1.51132e-08
-9.22292e-08
1.12174e-07
-3.56996e-07
4.47364e-07
-7.64554e-07
7.53226e-07
-1.26848e-06
9.65586e-07
-1.81468e-06
1.06458e-06
-2.34902e-06
1.05063e-06
-2.82241e-06
9.35294e-07
-3.19391e-06
7.36169e-07
-3.43257e-06
4.73943e-07
-3.51848e-06
1.71098e-07
-3.44354e-06
-1.484e-07
-3.21222e-06
-4.59094e-07
-2.84207e-06
-7.34235e-07
-2.36378e-06
-9.46623e-07
-1.82029e-06
-1.07047e-06
-1.26447e-06
-1.08457e-06
-7.54515e-07
-9.77091e-07
-3.46967e-07
-7.51569e-07
-8.73356e-08
-4.35627e-07
-1.02448e-07
-1.4521e-07
2.57384e-07
-5.25457e-07
8.2761e-07
-1.08162e-06
1.30939e-06
-1.74749e-06
1.63145e-06
-2.4543e-06
1.77139e-06
-3.13633e-06
1.73267e-06
-3.73524e-06
1.5342e-06
-4.20285e-06
1.20378e-06
-4.50286e-06
7.73951e-07
-4.61186e-06
2.80106e-07
-4.5202e-06
-2.40068e-07
-4.23268e-06
-7.46612e-07
-3.76932e-06
-1.1976e-06
-3.1656e-06
-1.55034e-06
-2.47184e-06
-1.76422e-06
-1.75105e-06
-1.80537e-06
-1.0745e-06
-1.65364e-06
-5.15132e-07
-1.31093e-06
-1.39314e-07
-8.11445e-07
-2.41762e-07
-1.93607e-07
4.50991e-07
-6.84992e-07
1.31899e-06
-1.3856e-06
2.01e-06
-2.20721e-06
2.45306e-06
-3.06542e-06
2.6296e-06
-3.88372e-06
2.55097e-06
-4.59643e-06
2.24692e-06
-5.1505e-06
1.75785e-06
-5.50636e-06
1.12981e-06
-5.63844e-06
4.1218e-07
-5.53567e-06
-3.42834e-07
-5.20229e-06
-1.07999e-06
-4.65881e-06
-1.74108e-06
-3.9429e-06
-2.26626e-06
-3.10966e-06
-2.59746e-06
-2.23047e-06
-2.68456e-06
-1.38962e-06
-2.49449e-06
-6.78489e-07
-2.02206e-06
-1.87765e-07
-1.30217e-06
-4.29527e-07
-2.39937e-07
6.90928e-07
-8.40339e-07
1.9194e-06
-1.68327e-06
2.85293e-06
-2.65702e-06
3.42682e-06
-3.66079e-06
3.63337e-06
-4.60771e-06
3.49789e-06
-5.42628e-06
3.06549e-06
-6.06049e-06
2.39206e-06
-6.46927e-06
1.53859e-06
-6.62597e-06
5.68875e-07
-6.51824e-06
-4.50563e-07
-6.14872e-06
-1.4495e-06
-5.53647e-06
-2.35333e-06
-4.71887e-06
-3.08386e-06
-3.75341e-06
-3.56291e-06
-2.71844e-06
-3.71953e-06
-1.71152e-06
-3.50142e-06
-8.44652e-07
-2.88893e-06
-2.36176e-07
-1.91064e-06
-6.65703e-07
-2.86742e-07
9.77671e-07
-9.97077e-07
2.62973e-06
-1.98206e-06
3.83792e-06
-3.10492e-06
4.54967e-06
-4.24792e-06
4.77637e-06
-5.31477e-06
4.56474e-06
-6.23006e-06
3.98078e-06
-6.93711e-06
3.09911e-06
-7.39542e-06
1.9969e-06
-7.57855e-06
7.5201e-07
-7.47309e-06
-5.56023e-07
-7.07905e-06
-1.84354e-06
-6.41183e-06
-3.02055e-06
-5.50554e-06
-3.99015e-06
-4.41703e-06
-4.65142e-06
-3.22935e-06
-4.90721e-06
-2.05294e-06
-4.67782e-06
-1.02253e-06
-3.91933e-06
-2.88279e-07
-2.64489e-06
-9.53982e-07
-3.36329e-07
1.314e-06
-1.16036e-06
3.45377e-06
-2.288e-06
4.96556e-06
-3.55498e-06
5.81664e-06
-4.82659e-06
6.04799e-06
-5.99903e-06
5.73718e-06
-6.99599e-06
4.97774e-06
-7.76347e-06
3.86659e-06
-8.26443e-06
2.49786e-06
-8.47456e-06
9.62138e-07
-8.37991e-06
-6.50672e-07
-7.97685e-06
-2.24661e-06
-7.27454e-06
-3.72286e-06
-6.29992e-06
-4.96477e-06
-5.10465e-06
-5.84669e-06
-3.77251e-06
-6.23934e-06
-2.42488e-06
-6.02546e-06
-1.22074e-06
-5.12347e-06
-3.47706e-07
-3.51793e-06
-1.30169e-06
-3.90956e-07
1.70496e-06
-1.33488e-06
4.39769e-06
-2.60497e-06
6.23564e-06
-4.00594e-06
7.21761e-06
-5.3868e-06
7.42885e-06
-6.63973e-06
6.99011e-06
-7.69241e-06
6.03042e-06
-8.49844e-06
4.67262e-06
-9.02839e-06
3.02781e-06
-9.26289e-06
1.19664e-06
-9.18862e-06
-7.24943e-07
-8.79746e-06
-2.63777e-06
-8.08934e-06
-4.43098e-06
-7.079e-06
-5.97511e-06
-5.80631e-06
-7.11938e-06
-4.34904e-06
-7.69662e-06
-2.83481e-06
-7.53969e-06
-1.44709e-06
-6.51119e-06
-4.18098e-07
-4.54692e-06
-1.71979e-06
-4.53453e-07
2.15841e-06
-1.52568e-06
5.46992e-06
-2.93488e-06
7.64484e-06
-4.45012e-06
8.73284e-06
-5.90633e-06
8.88506e-06
-7.19782e-06
8.2816e-06
-8.26367e-06
7.09627e-06
-9.07208e-06
5.48103e-06
-9.60689e-06
3.56262e-06
-9.85761e-06
1.44737e-06
-9.81344e-06
-7.69115e-07
-9.46139e-06
-2.98982e-06
-8.78912e-06
-5.10325e-06
-7.79301e-06
-6.97122e-06
-6.49222e-06
-8.42018e-06
-4.94797e-06
-9.24086e-06
-3.28511e-06
-9.20255e-06
-1.70868e-06
-8.08762e-06
-5.03587e-07
-5.75201e-06
-2.22337e-06
-5.28336e-07
2.68675e-06
-1.73966e-06
6.68125e-06
-3.27798e-06
9.18316e-06
-4.87163e-06
1.03265e-05
-6.34702e-06
1.03605e-05
-7.61083e-06
9.54541e-06
-8.62437e-06
8.1098e-06
-9.3797e-06
6.23636e-06
-9.881e-06
4.06392e-06
-1.01315e-05
1.69791e-06
-1.01258e-05
-7.74865e-07
-9.84635e-06
-3.26926e-06
-9.266e-06
-5.6836e-06
-8.35634e-06
-7.88088e-06
-7.1047e-06
-9.67182e-06
-5.5407e-06
-1.08049e-05
-3.77071e-06
-1.09725e-05
-2.01217e-06
-9.84616e-06
-6.09688e-07
-7.15449e-06
-2.83306e-06
-6.23666e-07
3.31041e-06
-1.98738e-06
8.04497e-06
-3.63191e-06
1.08277e-05
-5.24194e-06
1.19365e-05
-6.64759e-06
1.17661e-05
-7.7845e-06
1.06823e-05
-8.65104e-06
8.97634e-06
-9.27434e-06
6.85966e-06
-9.68657e-06
4.47616e-06
-9.90985e-06
1.92119e-06
-9.94727e-06
-7.37448e-07
-9.77862e-06
-3.43792e-06
-9.36092e-06
-6.1013e-06
-8.63564e-06
-8.60615e-06
-7.5464e-06
-1.07611e-05
-6.07159e-06
-1.22797e-05
-4.27427e-06
-1.27699e-05
-2.36365e-06
-1.17568e-05
-7.44777e-07
-8.77336e-06
-3.57784e-06
-7.54077e-07
4.06449e-06
-2.28435e-06
9.57524e-06
-3.98702e-06
1.25304e-05
-5.50911e-06
1.34586e-05
-6.70963e-06
1.29666e-05
-7.57859e-06
1.15513e-05
-8.1701e-06
9.56785e-06
-8.55768e-06
7.24724e-06
-8.80779e-06
4.72626e-06
-8.96511e-06
2.07852e-06
-9.04443e-06
-6.58131e-07
-9.02581e-06
-3.45654e-06
-8.85265e-06
-6.27445e-06
-8.43487e-06
-9.02393e-06
-7.66294e-06
-1.1533e-05
-6.44203e-06
-1.35006e-05
-4.75627e-06
-1.44556e-05
-2.76675e-06
-1.37463e-05
-9.22436e-07
-1.06177e-05
-4.50027e-06
-9.45207e-07
5.0097e-06
-2.64849e-06
1.12785e-05
-4.311e-06
1.41929e-05
-5.57331e-06
1.47209e-05
-6.3707e-06
1.3764e-05
-6.7833e-06
1.19639e-05
-6.94052e-06
9.72507e-06
-6.96975e-06
7.27647e-06
-6.9728e-06
4.72931e-06
-7.01652e-06
2.12224e-06
-7.12862e-06
-5.46031e-07
-7.29377e-06
-3.29138e-06
-7.44865e-06
-6.11958e-06
-7.4779e-06
-8.99469e-06
-7.21794e-06
-1.17929e-05
-6.48276e-06
-1.42358e-05
-5.13344e-06
-1.58049e-05
-3.21498e-06
-1.56648e-05
-1.16439e-06
-1.26683e-05
-5.66466e-06
-1.23731e-06
6.24701e-06
-3.08329e-06
1.31245e-05
-4.50771e-06
1.56173e-05
-5.23449e-06
1.54477e-05
-5.35522e-06
1.38848e-05
-5.08184e-06
1.16905e-05
-4.6309e-06
9.27413e-06
-4.17927e-06
6.82483e-06
-3.85436e-06
4.4044e-06
-3.73702e-06
2.0049e-06
-3.86513e-06
-4.17926e-07
-4.23264e-06
-2.92387e-06
-4.78208e-06
-5.57014e-06
-5.39107e-06
-8.3857e-06
-5.8585e-06
-1.13255e-05
-5.90658e-06
-1.41877e-05
-5.23282e-06
-1.64787e-05
-3.66627e-06
-1.72313e-05
-1.50008e-06
-1.48345e-05
-7.16474e-06
-1.67381e-06
7.92082e-06
-3.51337e-06
1.49641e-05
-4.3153e-06
1.64192e-05
-4.08888e-06
1.52213e-05
-3.19305e-06
1.29889e-05
-1.99874e-06
1.04962e-05
-7.95151e-07
8.07054e-06
2.19329e-07
5.81035e-06
9.18225e-07
3.70551e-06
1.2256e-06
1.69753e-06
1.10206e-06
-2.94385e-07
5.41054e-07
-2.36287e-06
-4.22936e-07
-4.60615e-06
-1.69257e-06
-7.11606e-06
-3.07241e-06
-9.94566e-06
-4.23082e-06
-1.30293e-05
-4.69565e-06
-1.60139e-05
-3.96718e-06
-1.79598e-05
-1.94492e-06
-1.68567e-05
-9.10966e-06
-2.23069e-06
1.01515e-05
-3.5903e-06
1.63237e-05
-3.07778e-06
1.59067e-05
-1.34388e-06
1.34874e-05
8.97028e-07
1.0748e-05
3.15496e-06
8.23826e-06
5.1381e-06
6.08739e-06
6.68868e-06
4.25978e-06
7.72582e-06
2.66837e-06
8.20654e-06
1.21681e-06
8.10387e-06
-1.9172e-07
7.39902e-06
-1.65802e-06
6.08685e-06
-3.29397e-06
4.19918e-06
-5.22839e-06
1.85414e-06
-7.60063e-06
-6.61721e-07
-1.05134e-05
-2.79218e-06
-1.38834e-05
-3.66209e-06
-1.70899e-05
-2.41154e-06
-1.81073e-05
-1.15212e-05
-2.57381e-06
1.27253e-05
-2.18346e-06
1.59333e-05
7.18067e-07
1.30052e-05
4.46956e-06
9.73588e-06
8.13328e-06
7.0843e-06
1.13016e-05
5.06998e-06
1.38291e-05
3.55988e-06
1.56881e-05
2.40078e-06
1.68916e-05
1.4648e-06
1.74549e-05
6.53601e-07
1.73763e-05
-1.13202e-07
1.66305e-05
-9.12152e-07
1.51672e-05
-1.83066e-06
1.29235e-05
-2.98473e-06
9.86174e-06
-4.53888e-06
6.06196e-06
-6.71363e-06
1.91233e-06
-9.73379e-06
-1.55963e-06
-1.36179e-05
-2.45834e-06
-1.72086e-05
-1.39795e-05
-7.85012e-07
1.35103e-05
4.08079e-06
1.10675e-05
1.02975e-05
6.78843e-06
1.57936e-05
4.23979e-06
2.0158e-05
2.71991e-06
2.34581e-05
1.76994e-06
2.58608e-05
1.15714e-06
2.75215e-05
7.40052e-07
2.8554e-05
4.32292e-07
2.90264e-05
1.81221e-07
2.89622e-05
-4.89816e-08
2.83387e-05
-2.88699e-07
2.70818e-05
-5.7374e-07
2.50551e-05
-9.57955e-07
2.20517e-05
-1.53552e-06
1.78155e-05
-2.47741e-06
1.21724e-05
-4.09068e-06
5.47772e-06
-6.92324e-06
-1.2917e-07
-1.16017e-05
-1.41087e-05
1.35103e-05
2.45779e-05
3.13663e-05
3.56061e-05
3.8326e-05
4.00959e-05
4.12531e-05
4.19931e-05
4.24254e-05
4.26066e-05
4.25576e-05
4.22689e-05
4.16952e-05
4.07372e-05
3.92017e-05
3.67243e-05
3.26336e-05
2.57104e-05
1.41087e-05
)
;

boundaryField
{
    movingWall
    {
        type            calculated;
        value           uniform 0;
    }
    fixedWalls
    {
        type            calculated;
        value           uniform 0;
    }
    frontAndBack
    {
        type            empty;
        value           nonuniform 0();
    }
}


// ************************************************************************* //
