/*--------------------------------*- C++ -*----------------------------------*\
| RapidCFD by simFlow (sim-flow.com)                                          |
\*---------------------------------------------------------------------------*/
FoamFile
{
    version     2.0;
    format      ascii;
    class       volVectorField;
    location    "0.3";
    object      U;
}
// * * * * * * * * * * * * * * * * * * * * * * * * * * * * * * * * * * * * * //

dimensions      [0 1 -1 0 0 0 0];

internalField   nonuniform List<vector> 
400
(
(0.000253323 -0.000250486 0)
(0.000141097 0.000111393 0)
(-0.00117701 0.000564573 0)
(-0.00348107 0.000884948 0)
(-0.00637737 0.00104567 0)
(-0.00946929 0.00106171 0)
(-0.0124027 0.000957817 0)
(-0.0148847 0.000760417 0)
(-0.0166892 0.000494634 0)
(-0.017658 0.000184559 0)
(-0.0177019 -0.000145263 0)
(-0.0168048 -0.000468356 0)
(-0.0150299 -0.000755399 0)
(-0.012525 -0.000974244 0)
(-0.00952627 -0.00109117 0)
(-0.00635491 -0.00107399 0)
(-0.0034006 -0.000898108 0)
(-0.00108642 -0.000556385 0)
(0.000196413 -9.03707e-05 0)
(0.00026785 0.000262376 0)
(-7.75086e-05 -0.000169455 0)
(-0.00161162 0.00164474 0)
(-0.00569291 0.00361721 0)
(-0.0117188 0.00503473 0)
(-0.0188922 0.00574314 0)
(-0.0264006 0.00576013 0)
(-0.033469 0.00517161 0)
(-0.0394267 0.00409247 0)
(-0.0437438 0.00264762 0)
(-0.046047 0.000966928 0)
(-0.0461294 -0.000813208 0)
(-0.0439613 -0.00254705 0)
(-0.0397011 -0.00407861 0)
(-0.0337027 -0.00524507 0)
(-0.0265134 -0.00588653 0)
(-0.0188546 -0.00586483 0)
(-0.0115667 -0.00509474 0)
(-0.00551329 -0.00358942 0)
(-0.00149309 -0.00155914 0)
(-4.25854e-05 0.000227449 0)
(-0.000528625 0.00109156 0)
(-0.00371143 0.00573619 0)
(-0.010589 0.0102243 0)
(-0.0199918 0.0134075 0)
(-0.0307649 0.0149462 0)
(-0.0418223 0.0148387 0)
(-0.05212 0.0132556 0)
(-0.0607444 0.0104561 0)
(-0.0669697 0.00674196 0)
(-0.070283 0.00243887 0)
(-0.070401 -0.00210652 0)
(-0.0672846 -0.00652543 0)
(-0.0611526 -0.0104292 0)
(-0.0524887 -0.013421 0)
(-0.0420372 -0.0151235 0)
(-0.0307741 -0.0152256 0)
(-0.0198292 -0.013556 0)
(-0.0103636 -0.0101789 0)
(-0.00354853 -0.00555107 0)
(-0.000476848 -0.000948834 0)
(-0.000928231 0.0034798 0)
(-0.00569153 0.0122205 0)
(-0.0153019 0.0199216 0)
(-0.027917 0.0251977 0)
(-0.0419857 0.0275968 0)
(-0.0561794 0.0271373 0)
(-0.0692525 0.0241088 0)
(-0.0801262 0.0189538 0)
(-0.0879488 0.0121955 0)
(-0.0921195 0.00440506 0)
(-0.0923041 -0.00380795 0)
(-0.0884508 -0.0117965 0)
(-0.0808055 -0.0188821 0)
(-0.0699234 -0.0243762 0)
(-0.0566696 -0.0276275 0)
(-0.0421951 -0.0281017 0)
(-0.0278568 -0.0254976 0)
(-0.0150937 -0.0198916 0)
(-0.00550506 -0.0119277 0)
(-0.000861602 -0.00322486 0)
(-0.00127893 0.00687775 0)
(-0.00753609 0.0209535 0)
(-0.0198049 0.0325102 0)
(-0.0355351 0.040103 0)
(-0.0527438 0.04329 0)
(-0.0698591 0.0421925 0)
(-0.0854641 0.0372773 0)
(-0.0983614 0.0292129 0)
(-0.107621 0.0187771 0)
(-0.112589 0.00681369 0)
(-0.112898 -0.00578034 0)
(-0.108475 -0.0180546 0)
(-0.099563 -0.0290112 0)
(-0.0867399 -0.0376325 0)
(-0.0709363 -0.0429448 0)
(-0.0534307 -0.0441286 0)
(-0.0357848 -0.0406785 0)
(-0.0197352 -0.0325923 0)
(-0.00737063 -0.0205905 0)
(-0.00120368 -0.00649813 0)
(-0.00160752 0.0112155 0)
(-0.00931806 0.0318743 0)
(-0.0242094 0.0479514 0)
(-0.0430028 0.0580714 0)
(-0.0632573 0.0619365 0)
(-0.0831532 0.0598805 0)
(-0.101125 0.0526277 0)
(-0.115893 0.0411254 0)
(-0.126488 0.0264368 0)
(-0.132238 0.0096928 0)
(-0.13275 -0.00791622 0)
(-0.127923 -0.0251318 0)
(-0.117967 -0.0406245 0)
(-0.103434 -0.0530187 0)
(-0.085269 -0.0609656 0)
(-0.0648356 -0.0632794 0)
(-0.0438855 -0.0591414 0)
(-0.0244777 -0.0483439 0)
(-0.0092543 -0.0315573 0)
(-0.00153775 -0.0107285 0)
(-0.00194004 0.0164769 0)
(-0.0111212 0.0449736 0)
(-0.0286503 0.0662324 0)
(-0.0504796 0.0790583 0)
(-0.0736847 0.083445 0)
(-0.0962034 0.0800729 0)
(-0.116351 0.0700233 0)
(-0.132814 0.054584 0)
(-0.144631 0.0351312 0)
(-0.151141 0.0130845 0)
(-0.151949 -0.0100863 0)
(-0.146915 -0.0328321 0)
(-0.136181 -0.0534988 0)
(-0.120222 -0.0703357 0)
(-0.0999321 -0.081564 0)
(-0.076701 -0.0855314 0)
(-0.0524399 -0.0809625 0)
(-0.0295447 -0.0672761 0)
(-0.0112835 -0.0449389 0)
(-0.00190006 -0.0159514 0)
(-0.00230001 0.0226946 0)
(-0.0130249 0.0602999 0)
(-0.0332506 0.0873621 0)
(-0.0580792 0.102995 0)
(-0.0840739 0.107663 0)
(-0.108953 0.102559 0)
(-0.130966 0.0892424 0)
(-0.148833 0.0694095 0)
(-0.161665 0.0447708 0)
(-0.168866 0.0170196 0)
(-0.170061 -0.0121332 0)
(-0.16507 -0.0408924 0)
(-0.153928 -0.067313 0)
(-0.136969 -0.0892715 0)
(-0.114942 -0.10451 0)
(-0.0891751 -0.110795 0)
(-0.0616701 -0.106211 0)
(-0.035148 -0.089578 0)
(-0.0135857 -0.0609485 0)
(-0.00232631 -0.0222772 0)
(-0.00271162 0.0299464 0)
(-0.0151079 0.0779551 0)
(-0.0381144 0.111354 0)
(-0.0658478 0.129747 0)
(-0.0943259 0.134314 0)
(-0.121098 0.126971 0)
(-0.144442 0.1099 0)
(-0.163211 0.0852799 0)
(-0.176685 0.055166 0)
(-0.184405 0.0214866 0)
(-0.186056 -0.0138743 0)
(-0.18142 -0.0489555 0)
(-0.170393 -0.0815916 0)
(-0.153079 -0.109321 0)
(-0.12997 -0.129378 0)
(-0.102185 -0.138826 0)
(-0.0716889 -0.134884 0)
(-0.0414666 -0.115467 0)
(-0.0162879 -0.079894 0)
(-0.00285467 -0.0298891 0)
(-0.00320764 0.0383588 0)
(-0.0174661 0.0980874 0)
(-0.0433408 0.138186 0)
(-0.0737563 0.159042 0)
(-0.10416 0.162897 0)
(-0.132031 0.152669 0)
(-0.155825 0.131339 0)
(-0.174678 0.101638 0)
(-0.188167 0.0659563 0)
(-0.196067 0.0263892 0)
(-0.198185 -0.0151121 0)
(-0.194283 -0.0565439 0)
(-0.184081 -0.0956398 0)
(-0.167366 -0.129686 0)
(-0.144215 -0.15542 0)
(-0.115338 -0.169094 0)
(-0.0824454 -0.1668 0)
(-0.0486359 -0.145122 0)
(-0.0195286 -0.102158 0)
(-0.00353355 -0.0390466 0)
(-0.00384396 0.0481278 0)
(-0.0202462 0.120891 0)
(-0.0490467 0.167749 0)
(-0.0816865 0.190363 0)
(-0.113053 0.192553 0)
(-0.140747 0.178611 0)
(-0.163622 0.152509 0)
(-0.18131 0.11759 0)
(-0.193847 0.0765336 0)
(-0.201361 0.031494 0)
(-0.203857 -0.0156582 0)
(-0.20111 -0.0630489 0)
(-0.192649 -0.108489 0)
(-0.177857 -0.149168 0)
(-0.156224 -0.181412 0)
(-0.12778 -0.200603 0)
(-0.0936442 -0.201421 0)
(-0.056733 -0.178571 0)
(-0.0234798 -0.128171 0)
(-0.00443553 -0.0501037 0)
(-0.00472539 0.0595703 0)
(-0.0236948 0.146615 0)
(-0.0553833 0.199753 0)
(-0.089377 0.222787 0)
(-0.120123 0.221888 0)
(-0.145677 0.203185 0)
(-0.165632 0.171837 0)
(-0.180373 0.131808 0)
(-0.190583 0.0859686 0)
(-0.196865 0.0363761 0)
(-0.199503 -0.0153699 0)
(-0.198337 -0.0677415 0)
(-0.192719 -0.118864 0)
(-0.181575 -0.166075 0)
(-0.163646 -0.205485 0)
(-0.137967 -0.231658 0)
(-0.104596 -0.237622 0)
(-0.0657337 -0.215522 0)
(-0.0283778 -0.158366 0)
(-0.00568209 -0.0635515 0)
(-0.00605162 0.0732275 0)
(-0.028226 0.175561 0)
(-0.0625092 0.233568 0)
(-0.0962578 0.254743 0)
(-0.123858 0.248728 0)
(-0.144399 0.224023 0)
(-0.158672 0.187104 0)
(-0.168109 0.14246 0)
(-0.174204 0.0929677 0)
(-0.178121 0.0403788 0)
(-0.180487 -0.0141979 0)
(-0.181268 -0.0698198 0)
(-0.179698 -0.125209 0)
(-0.174272 -0.178177 0)
(-0.162896 -0.22497 0)
(-0.143317 -0.259585 0)
(-0.113938 -0.273326 0)
(-0.0753934 -0.255064 0)
(-0.0345564 -0.193089 0)
(-0.00748631 -0.0801035 0)
(-0.00819211 0.0900456 0)
(-0.0344829 0.208019 0)
(-0.0704128 0.267881 0)
(-0.101024 0.283603 0)
(-0.121576 0.269808 0)
(-0.133109 0.237838 0)
(-0.138165 0.195402 0)
(-0.139465 0.147231 0)
(-0.13937 0.0959082 0)
(-0.139598 0.0426193 0)
(-0.141112 -0.0122325 0)
(-0.144057 -0.0685059 0)
(-0.147671 -0.125792 0)
(-0.150171 -0.182767 0)
(-0.148722 -0.236322 0)
(-0.139645 -0.280444 0)
(-0.119095 -0.305023 0)
(-0.0849364 -0.295156 0)
(-0.0424406 -0.232375 0)
(-0.0102161 -0.100836 0)
(-0.0117675 0.111635 0)
(-0.0432599 0.24396 0)
(-0.0782977 0.300032 0)
(-0.100629 0.30509 0)
(-0.108352 0.280458 0)
(-0.105732 0.24038 0)
(-0.0975307 0.193279 0)
(-0.0877724 0.143547 0)
(-0.0795026 0.0930349 0)
(-0.074787 0.0420947 0)
(-0.0748046 -0.00972846 0)
(-0.0798924 -0.0632102 0)
(-0.0894644 -0.118989 0)
(-0.10179 -0.176955 0)
(-0.113687 -0.235283 0)
(-0.120306 -0.28888 0)
(-0.115264 -0.327194 0)
(-0.0922668 -0.331792 0)
(-0.0523158 -0.275402 0)
(-0.0144304 -0.127347 0)
(-0.0175493 0.140659 0)
(-0.0547647 0.282145 0)
(-0.0827866 0.324717 0)
(-0.088081 0.312472 0)
(-0.0751092 0.274454 0)
(-0.0525919 0.226769 0)
(-0.0274596 0.177287 0)
(-0.00451586 0.129134 0)
(0.0130974 0.082912 0)
(0.0234385 0.0379466 0)
(0.0253971 -0.00707331 0)
(0.0185061 -0.0537579 0)
(0.00297859 -0.103751 0)
(-0.0199979 -0.158319 0)
(-0.0476867 -0.217501 0)
(-0.0749854 -0.278359 0)
(-0.0935471 -0.331789 0)
(-0.092064 -0.357681 0)
(-0.0632806 -0.319293 0)
(-0.0206336 -0.161973 0)
(-0.0254498 0.181711 0)
(-0.0657747 0.317771 0)
(-0.0733333 0.331362 0)
(-0.0480774 0.2954 0)
(-0.00557884 0.244211 0)
(0.0412177 0.192379 0)
(0.0846521 0.145046 0)
(0.120535 0.102971 0)
(0.146701 0.0651374 0)
(0.162046 0.0298912 0)
(0.16594 -0.00467148 0)
(0.157934 -0.0406281 0)
(0.137731 -0.080246 0)
(0.105439 -0.125917 0)
(0.0622613 -0.179725 0)
(0.011805 -0.242019 0)
(-0.0378304 -0.307877 0)
(-0.0716797 -0.360142 0)
(-0.0700556 -0.356608 0)
(-0.0279123 -0.208375 0)
(-0.029649 0.239176 0)
(-0.0608413 0.335767 0)
(-0.0219426 0.300503 0)
(0.0505416 0.240127 0)
(0.127572 0.182948 0)
(0.197007 0.135389 0)
(0.254336 0.0973985 0)
(0.298249 0.0668507 0)
(0.328823 0.041355 0)
(0.346466 0.0187784 0)
(0.351374 -0.00279413 0)
(0.343301 -0.025265 0)
(0.321467 -0.0507874 0)
(0.284641 -0.0820477 0)
(0.231571 -0.122445 0)
(0.16218 -0.175669 0)
(0.0799 -0.243431 0)
(-0.00319019 -0.319136 0)
(-0.0546697 -0.368612 0)
(-0.0284594 -0.267618 0)
(0.00808312 0.281861 0)
(0.0197831 0.294972 0)
(0.139066 0.210972 0)
(0.26446 0.143477 0)
(0.364367 0.0971857 0)
(0.440363 0.0657772 0)
(0.496742 0.0442372 0)
(0.536873 0.0288858 0)
(0.563445 0.0171988 0)
(0.578304 0.00748473 0)
(0.582379 -0.00149411 0)
(0.575694 -0.0108452 0)
(0.557307 -0.0218469 0)
(0.525134 -0.0363348 0)
(0.475776 -0.0572594 0)
(0.404537 -0.0893839 0)
(0.305176 -0.139741 0)
(0.173417 -0.216386 0)
(0.0411719 -0.311655 0)
(0.0184302 -0.299995 0)
(0.299604 0.146091 0)
(0.396272 0.127503 0)
(0.55742 0.0760895 0)
(0.674487 0.0437232 0)
(0.743888 0.025572 0)
(0.787153 0.0152421 0)
(0.815485 0.00921229 0)
(0.833955 0.00550938 0)
(0.845385 0.00302716 0)
(0.851371 0.00114934 0)
(0.852665 -0.000499378 0)
(0.849382 -0.00221505 0)
(0.840999 -0.00433853 0)
(0.82614 -0.00742404 0)
(0.802078 -0.0125322 0)
(0.76362 -0.0217728 0)
(0.699108 -0.0392829 0)
(0.583952 -0.0726601 0)
(0.415827 -0.127868 0)
(0.308819 -0.149468 0)
)
;

boundaryField
{
    movingWall
    {
        type            fixedValue;
        value           uniform (1 0 0);
    }
    fixedWalls
    {
        type            fixedValue;
        value           uniform (0 0 0);
    }
    frontAndBack
    {
        type            empty;
    }
}


// ************************************************************************* //
