/*--------------------------------*- C++ -*----------------------------------*\
| RapidCFD by simFlow (sim-flow.com)                                          |
\*---------------------------------------------------------------------------*/
FoamFile
{
    version     2.0;
    format      ascii;
    class       volScalarField;
    location    "0.4";
    object      p;
}
// * * * * * * * * * * * * * * * * * * * * * * * * * * * * * * * * * * * * * //

dimensions      [0 2 -2 0 0 0 0];

internalField   nonuniform List<scalar> 
400
(
5.65892e-06
-0.00582032
-0.012958
-0.0184103
-0.0204278
-0.0182342
-0.0117697
-0.00147954
0.0118415
0.0271533
0.0432486
0.0588273
0.072583
0.0833128
0.0900572
0.0922714
0.0900303
0.0842483
0.0768851
0.0710716
0.0057856
-0.000213331
-0.00579929
-0.00953807
-0.0105946
-0.00842843
-0.00296575
0.00547828
0.016307
0.0287159
0.041754
0.0543902
0.0655908
0.0744144
0.0801248
0.0823203
0.0810818
0.0770593
0.0712785
0.0653223
0.01334
0.00503851
-0.000990646
-0.00441857
-0.00526846
-0.00325956
0.00160659
0.00903175
0.0185062
0.0293534
0.0407696
0.0518739
0.0617729
0.0696408
0.0748114
0.0768825
0.0758461
0.0720903
0.0658098
0.0575399
0.0201443
0.00870078
0.00123053
-0.00266396
-0.0037176
-0.00188087
0.00273559
0.00978878
0.0187845
0.0290992
0.0399962
0.0506583
0.0602373
0.0679203
0.0730075
0.0750058
0.0737702
0.0694605
0.0616073
0.0501069
0.0245069
0.00977796
0.000594457
-0.00398234
-0.00529772
-0.00350289
0.00117908
0.00833882
0.0174662
0.0279533
0.0390892
0.0500742
0.0600532
0.0681694
0.0736307
0.0758021
0.0743734
0.0692941
0.0595299
0.0445415
0.0251828
0.0071549
-0.00379729
-0.00905258
-0.0105076
-0.00849546
-0.00335237
0.00443378
0.0143176
0.0256833
0.0378181
0.0499076
0.0610524
0.0703075
0.076739
0.0795213
0.0781433
0.0723379
0.0605436
0.0418944
0.0210983
-0.000257492
-0.0129297
-0.0187046
-0.0200252
-0.0174093
-0.0113138
-0.0023152
0.00899485
0.0219806
0.035914
0.0499487
0.0631166
0.0743497
0.0825263
0.0865739
0.0857251
0.0794515
0.0656247
0.0430761
0.0111476
-0.0136133
-0.0278702
-0.0338495
-0.0345988
-0.0308527
-0.0232081
-0.0123405
0.00110944
0.0164884
0.033057
0.0499381
0.0660878
0.0802943
0.0912051
0.0974345
0.0978748
0.0916405
0.0759007
0.049121
-0.0059623
-0.0342616
-0.0498652
-0.0555438
-0.0550853
-0.0495097
-0.0395887
-0.0261085
-0.00975233
0.00882772
0.0289056
0.0495981
0.0698021
0.0881591
0.103052
0.112706
0.115555
0.110196
0.0928388
0.061416
-0.0318522
-0.0638712
-0.080412
-0.0850023
-0.0824152
-0.0740734
-0.060976
-0.0440317
-0.0239466
-0.00133199
0.0231504
0.0486658
0.0741003
0.0979769
0.118401
0.13313
0.139993
0.136823
0.118445
0.0819385
-0.0686623
-0.104598
-0.12134
-0.123585
-0.117511
-0.105122
-0.0877133
-0.0663205
-0.0416319
-0.0141506
0.0156106
0.0469581
0.0788606
0.109798
0.137629
0.15959
0.172732
0.173783
0.155525
0.113576
-0.119397
-0.159352
-0.17491
-0.172752
-0.161143
-0.142924
-0.119754
-0.0927718
-0.0625722
-0.0294424
0.00637832
0.0444786
0.0840602
0.123708
0.161141
0.193091
0.215673
0.224082
0.208055
0.160637
-0.188623
-0.232237
-0.243933
-0.233942
-0.213689
-0.187149
-0.156367
-0.122496
-0.0858925
-0.0464667
-0.00400902
0.0415442
0.0898475
0.139835
0.189324
0.234694
0.27108
0.291669
0.281748
0.229781
-0.283969
-0.329299
-0.331826
-0.308274
-0.274703
-0.236434
-0.195759
-0.153604
-0.109834
-0.0637394
-0.0144321
0.0388692
0.0965599
0.158282
0.22238
0.285293
0.341403
0.38158
0.384919
0.331839
-0.419312
-0.459665
-0.442344
-0.395786
-0.342123
-0.287733
-0.23461
-0.182924
-0.131603
-0.0789787
-0.0232078
0.0374815
0.104559
0.178844
0.259867
0.344976
0.428622
0.499706
0.529681
0.485397
-0.620525
-0.636737
-0.578671
-0.494187
-0.411234
-0.335652
-0.267774
-0.205971
-0.14753
-0.0893762
-0.0284193
0.038355
0.113813
0.200478
0.299982
0.412031
0.533036
0.651781
0.732778
0.722402
-0.935917
-0.878508
-0.741735
-0.597942
-0.474386
-0.372652
-0.288862
-0.217756
-0.153946
-0.0924568
-0.0287102
0.0417028
0.123271
0.220725
0.338933
0.482161
0.652003
0.841348
1.01528
1.09751
-1.47642
-1.20662
-0.920496
-0.691381
-0.517298
-0.387537
-0.290054
-0.21333
-0.148117
-0.0872083
-0.0245704
0.0454647
0.128945
0.233078
0.36711
0.542685
0.7713
1.05932
1.40329
1.73015
-2.53964
-1.63054
-1.04443
-0.710952
-0.495743
-0.352086
-0.254524
-0.183576
-0.126162
-0.0735879
-0.0192618
0.042794
0.119219
0.21879
0.354819
0.547991
0.8264
1.23659
1.91168
2.9242
-4.36666
-2.04463
-0.973535
-0.563174
-0.357839
-0.24014
-0.170112
-0.123776
-0.0874742
-0.0535031
-0.0166473
0.0276678
0.0846146
0.161737
0.272418
0.442106
0.718226
1.22572
2.41104
4.84854
)
;

boundaryField
{
    movingWall
    {
        type            zeroGradient;
    }
    fixedWalls
    {
        type            zeroGradient;
    }
    frontAndBack
    {
        type            empty;
    }
}


// ************************************************************************* //
