/*--------------------------------*- C++ -*----------------------------------*\
| RapidCFD by simFlow (sim-flow.com)                                          |
\*---------------------------------------------------------------------------*/
FoamFile
{
    version     2.0;
    format      ascii;
    class       surfaceScalarField;
    location    "0.4";
    object      phi;
}
// * * * * * * * * * * * * * * * * * * * * * * * * * * * * * * * * * * * * * //

dimensions      [0 3 -1 0 0 0 0];

internalField   nonuniform List<scalar> 
760
(
1.4227e-08
-1.42743e-08
-2.22133e-08
3.64404e-08
-1.14275e-07
9.20609e-08
-2.45505e-07
1.31229e-07
-3.96115e-07
1.5061e-07
-5.47389e-07
1.51274e-07
-6.83219e-07
1.3583e-07
-7.90695e-07
1.07475e-07
-8.60241e-07
6.95455e-08
-8.85675e-07
2.54336e-08
-8.64352e-07
-2.1323e-08
-7.97417e-07
-6.6934e-08
-6.90109e-07
-1.07307e-07
-5.51991e-07
-1.38117e-07
-3.96957e-07
-1.55035e-07
-2.42757e-07
-1.542e-07
-1.09736e-07
-1.33021e-07
-1.84161e-08
-9.13199e-08
1.56903e-08
-3.41063e-08
1.56907e-08
-3.422e-08
1.99457e-08
-1.80386e-07
1.82607e-07
-4.34013e-07
3.45688e-07
-7.64475e-07
4.6169e-07
-1.13227e-06
5.18407e-07
-1.49732e-06
5.16324e-07
-1.82343e-06
4.61939e-07
-2.08065e-06
3.64686e-07
-2.24639e-06
2.35292e-07
-2.30616e-06
8.51999e-08
-2.25401e-06
-7.34671e-08
-2.09315e-06
-2.27796e-07
-1.83635e-06
-3.64111e-07
-1.50611e-06
-4.68355e-07
-1.13413e-06
-5.27014e-07
-7.59554e-07
-5.28777e-07
-4.25418e-07
-4.67156e-07
-1.72698e-07
-3.44039e-07
-3.08031e-08
-1.76002e-07
-1.51124e-08
-9.22344e-08
1.1218e-07
-3.57017e-07
4.4739e-07
-7.64599e-07
7.5327e-07
-1.26855e-06
9.65644e-07
-1.81479e-06
1.06464e-06
-2.34916e-06
1.0507e-06
-2.82257e-06
9.3535e-07
-3.1941e-06
7.36211e-07
-3.43277e-06
4.73969e-07
-3.51868e-06
1.71105e-07
-3.44373e-06
-1.48413e-07
-3.2124e-06
-4.59126e-07
-2.84223e-06
-7.34282e-07
-2.36391e-06
-9.46682e-07
-1.82039e-06
-1.07053e-06
-1.26454e-06
-1.08463e-06
-7.54552e-07
-9.77143e-07
-3.46984e-07
-7.51607e-07
-8.73391e-08
-4.35647e-07
-1.02452e-07
-1.45218e-07
2.57398e-07
-5.25486e-07
8.27657e-07
-1.08168e-06
1.30946e-06
-1.74759e-06
1.63155e-06
-2.45444e-06
1.77149e-06
-3.13651e-06
1.73277e-06
-3.73544e-06
1.53429e-06
-4.20308e-06
1.20385e-06
-4.5031e-06
7.73991e-07
-4.61211e-06
2.80115e-07
-4.52044e-06
-2.4009e-07
-4.2329e-06
-7.46664e-07
-3.76951e-06
-1.19767e-06
-3.16575e-06
-1.55044e-06
-2.47197e-06
-1.76432e-06
-1.75113e-06
-1.80547e-06
-1.07455e-06
-1.65373e-06
-5.15156e-07
-1.311e-06
-1.3932e-07
-8.11484e-07
-2.41773e-07
-1.93617e-07
4.51016e-07
-6.85026e-07
1.31907e-06
-1.38567e-06
2.01011e-06
-2.20732e-06
2.4532e-06
-3.06557e-06
2.62975e-06
-3.88391e-06
2.55111e-06
-4.59666e-06
2.24704e-06
-5.15075e-06
1.75794e-06
-5.50663e-06
1.12986e-06
-5.6387e-06
4.12193e-07
-5.53593e-06
-3.42865e-07
-5.20253e-06
-1.08006e-06
-4.65902e-06
-1.74118e-06
-3.94307e-06
-2.26639e-06
-3.10979e-06
-2.5976e-06
-2.23056e-06
-2.6847e-06
-1.38968e-06
-2.49461e-06
-6.78517e-07
-2.02216e-06
-1.87773e-07
-1.30223e-06
-4.29546e-07
-2.39948e-07
6.90964e-07
-8.40374e-07
1.91949e-06
-1.68334e-06
2.85307e-06
-2.65713e-06
3.42699e-06
-3.66094e-06
3.63355e-06
-4.6079e-06
3.49806e-06
-5.4265e-06
3.06564e-06
-6.06074e-06
2.39218e-06
-6.46953e-06
1.53866e-06
-6.62623e-06
5.68891e-07
-6.51849e-06
-4.50602e-07
-6.14896e-06
-1.44959e-06
-5.53668e-06
-2.35346e-06
-4.71904e-06
-3.08403e-06
-3.75355e-06
-3.56309e-06
-2.71854e-06
-3.71971e-06
-1.71158e-06
-3.50158e-06
-8.44681e-07
-2.88905e-06
-2.36185e-07
-1.91072e-06
-6.65731e-07
-2.86752e-07
9.77717e-07
-9.97109e-07
2.62985e-06
-1.98213e-06
3.83809e-06
-3.10502e-06
4.54988e-06
-4.24805e-06
4.77659e-06
-5.31494e-06
4.56495e-06
-6.23026e-06
3.98096e-06
-6.93733e-06
3.09925e-06
-7.39565e-06
1.99698e-06
-7.57879e-06
7.52028e-07
-7.47332e-06
-5.56069e-07
-7.07926e-06
-1.84365e-06
-6.41202e-06
-3.02071e-06
-5.5057e-06
-3.99035e-06
-4.41715e-06
-4.65163e-06
-3.22944e-06
-4.90742e-06
-2.05299e-06
-4.67802e-06
-1.02256e-06
-3.91949e-06
-2.88287e-07
-2.645e-06
-9.54018e-07
-3.36337e-07
1.31405e-06
-1.16039e-06
3.4539e-06
-2.28806e-06
4.96576e-06
-3.55505e-06
5.81688e-06
-4.8267e-06
6.04824e-06
-5.99916e-06
5.73741e-06
-6.99615e-06
4.97795e-06
-7.76365e-06
3.86675e-06
-8.26462e-06
2.49796e-06
-8.47475e-06
9.62159e-07
-8.38009e-06
-6.50723e-07
-7.97702e-06
-2.24673e-06
-7.27469e-06
-3.72304e-06
-6.30005e-06
-4.96499e-06
-5.10475e-06
-5.84693e-06
-3.77259e-06
-6.23959e-06
-2.42492e-06
-6.02568e-06
-1.22076e-06
-5.12365e-06
-3.47713e-07
-3.51805e-06
-1.30173e-06
-3.90961e-07
1.70502e-06
-1.3349e-06
4.39784e-06
-2.605e-06
6.23586e-06
-4.00598e-06
7.21786e-06
-5.38687e-06
7.42912e-06
-6.63982e-06
6.99036e-06
-7.69251e-06
6.03064e-06
-8.49855e-06
4.67279e-06
-9.0285e-06
3.02791e-06
-9.26301e-06
1.19667e-06
-9.18874e-06
-7.24997e-07
-8.79757e-06
-2.6379e-06
-8.08944e-06
-4.43116e-06
-7.07909e-06
-5.97534e-06
-5.80638e-06
-7.11964e-06
-4.34909e-06
-7.69688e-06
-2.83484e-06
-7.53993e-06
-1.44711e-06
-6.51138e-06
-4.18102e-07
-4.54705e-06
-1.71983e-06
-4.53455e-07
2.15847e-06
-1.52569e-06
5.47007e-06
-2.93489e-06
7.64506e-06
-4.45013e-06
8.7331e-06
-5.90635e-06
8.88534e-06
-7.19785e-06
8.28186e-06
-8.2637e-06
7.09649e-06
-9.07212e-06
5.4812e-06
-9.60693e-06
3.56272e-06
-9.85765e-06
1.44739e-06
-9.81348e-06
-7.69168e-07
-9.46144e-06
-2.98994e-06
-8.78916e-06
-5.10344e-06
-7.79305e-06
-6.97145e-06
-6.49225e-06
-8.42044e-06
-4.948e-06
-9.24113e-06
-3.28513e-06
-9.2028e-06
-1.70869e-06
-8.08782e-06
-5.0359e-07
-5.75215e-06
-2.22342e-06
-5.28333e-07
2.6868e-06
-1.73965e-06
6.68139e-06
-3.27796e-06
9.18337e-06
-4.87161e-06
1.03267e-05
-6.34699e-06
1.03607e-05
-7.6108e-06
9.54567e-06
-8.62433e-06
8.11003e-06
-9.37966e-06
6.23653e-06
-9.88096e-06
4.06403e-06
-1.01315e-05
1.69794e-06
-1.01258e-05
-7.74915e-07
-9.84632e-06
-3.26939e-06
-9.26598e-06
-5.68378e-06
-8.35632e-06
-7.88111e-06
-7.10469e-06
-9.67207e-06
-5.5407e-06
-1.08051e-05
-3.7707e-06
-1.09728e-05
-2.01217e-06
-9.84636e-06
-6.09688e-07
-7.15462e-06
-2.83311e-06
-6.2366e-07
3.31046e-06
-1.98737e-06
8.0451e-06
-3.63188e-06
1.08279e-05
-5.24188e-06
1.19368e-05
-6.64751e-06
1.17664e-05
-7.78441e-06
1.06826e-05
-8.65094e-06
8.97656e-06
-9.27422e-06
6.85982e-06
-9.68645e-06
4.47626e-06
-9.90974e-06
1.92122e-06
-9.94716e-06
-7.37492e-07
-9.77852e-06
-3.43803e-06
-9.36083e-06
-6.10147e-06
-8.63557e-06
-8.60637e-06
-7.54635e-06
-1.07613e-05
-6.07156e-06
-1.22799e-05
-4.27425e-06
-1.27701e-05
-2.36364e-06
-1.1757e-05
-7.44775e-07
-8.77349e-06
-3.57789e-06
-7.54068e-07
4.06453e-06
-2.28432e-06
9.57535e-06
-3.98696e-06
1.25305e-05
-5.50902e-06
1.34588e-05
-6.70952e-06
1.29668e-05
-7.57845e-06
1.15515e-05
-8.16994e-06
9.56804e-06
-8.5575e-06
7.24739e-06
-8.8076e-06
4.72635e-06
-8.96493e-06
2.07855e-06
-9.04425e-06
-6.58168e-07
-9.02564e-06
-3.45663e-06
-8.85251e-06
-6.2746e-06
-8.43475e-06
-9.02412e-06
-7.66285e-06
-1.15332e-05
-6.44196e-06
-1.35008e-05
-4.75623e-06
-1.44558e-05
-2.76674e-06
-1.37465e-05
-9.22431e-07
-1.06178e-05
-4.50032e-06
-9.45196e-07
5.00973e-06
-2.64846e-06
1.12786e-05
-4.31093e-06
1.4193e-05
-5.57321e-06
1.47211e-05
-6.37056e-06
1.37642e-05
-6.78313e-06
1.19641e-05
-6.94032e-06
9.72523e-06
-6.96953e-06
7.2766e-06
-6.97256e-06
4.72939e-06
-7.01628e-06
2.12226e-06
-7.12839e-06
-5.4606e-07
-7.29356e-06
-3.29146e-06
-7.44846e-06
-6.1197e-06
-7.47774e-06
-8.99484e-06
-7.21783e-06
-1.17931e-05
-6.48268e-06
-1.42359e-05
-5.13339e-06
-1.58051e-05
-3.21496e-06
-1.56649e-05
-1.16438e-06
-1.26684e-05
-5.6647e-06
-1.2373e-06
6.24703e-06
-3.08326e-06
1.31246e-05
-4.50764e-06
1.56174e-05
-5.23437e-06
1.54478e-05
-5.35507e-06
1.38849e-05
-5.08165e-06
1.16906e-05
-4.63068e-06
9.27426e-06
-4.17902e-06
6.82494e-06
-3.8541e-06
4.40447e-06
-3.73676e-06
2.00492e-06
-3.86487e-06
-4.17946e-07
-4.2324e-06
-2.92393e-06
-4.78187e-06
-5.57023e-06
-5.39089e-06
-8.38582e-06
-5.85836e-06
-1.13256e-05
-5.90648e-06
-1.41878e-05
-5.23276e-06
-1.64788e-05
-3.66624e-06
-1.72314e-05
-1.50007e-06
-1.48345e-05
-7.16477e-06
-1.6738e-06
7.92083e-06
-3.51333e-06
1.49641e-05
-4.31524e-06
1.64193e-05
-4.08877e-06
1.52214e-05
-3.1929e-06
1.2989e-05
-1.99856e-06
1.04963e-05
-7.94927e-07
8.07063e-06
2.19578e-07
5.81043e-06
9.1849e-07
3.70556e-06
1.22587e-06
1.69755e-06
1.10232e-06
-2.94399e-07
5.413e-07
-2.36291e-06
-4.22717e-07
-4.60622e-06
-1.69239e-06
-7.11615e-06
-3.07227e-06
-9.94576e-06
-4.23072e-06
-1.30294e-05
-4.69559e-06
-1.6014e-05
-3.96715e-06
-1.79599e-05
-1.94492e-06
-1.68568e-05
-9.10968e-06
-2.23068e-06
1.01515e-05
-3.59027e-06
1.63237e-05
-3.07773e-06
1.59067e-05
-1.34379e-06
1.34874e-05
8.97157e-07
1.07481e-05
3.15513e-06
8.23833e-06
5.13831e-06
6.08745e-06
6.68891e-06
4.25983e-06
7.72606e-06
2.6684e-06
8.20679e-06
1.21682e-06
8.10412e-06
-1.91729e-07
7.39925e-06
-1.65804e-06
6.08705e-06
-3.29401e-06
4.19935e-06
-5.22844e-06
1.85428e-06
-7.60069e-06
-6.61625e-07
-1.05135e-05
-2.79212e-06
-1.38835e-05
-3.66206e-06
-1.70899e-05
-2.41153e-06
-1.81073e-05
-1.15212e-05
-2.57381e-06
1.27253e-05
-2.18344e-06
1.59333e-05
7.18103e-07
1.30052e-05
4.46963e-06
9.7359e-06
8.13338e-06
7.08434e-06
1.13017e-05
5.07002e-06
1.38292e-05
3.55991e-06
1.56883e-05
2.4008e-06
1.68918e-05
1.46481e-06
1.74551e-05
6.53606e-07
1.73765e-05
-1.13206e-07
1.66307e-05
-9.12166e-07
1.51673e-05
-1.83068e-06
1.29236e-05
-2.98475e-06
9.86185e-06
-4.5389e-06
6.06203e-06
-6.71365e-06
1.91238e-06
-9.73382e-06
-1.5596e-06
-1.36179e-05
-2.45833e-06
-1.72086e-05
-1.39795e-05
-7.85014e-07
1.35103e-05
4.0808e-06
1.10675e-05
1.02976e-05
6.78843e-06
1.57937e-05
4.2398e-06
2.01581e-05
2.71992e-06
2.34581e-05
1.76995e-06
2.58609e-05
1.15715e-06
2.75217e-05
7.40059e-07
2.85542e-05
4.32297e-07
2.90266e-05
1.81222e-07
2.89623e-05
-4.89836e-08
2.83389e-05
-2.88703e-07
2.70819e-05
-5.73746e-07
2.50551e-05
-9.57962e-07
2.20518e-05
-1.53553e-06
1.78155e-05
-2.47742e-06
1.21724e-05
-4.09069e-06
5.47773e-06
-6.92324e-06
-1.29167e-07
-1.16017e-05
-1.41087e-05
1.35103e-05
2.45778e-05
3.13663e-05
3.56061e-05
3.8326e-05
4.00959e-05
4.12531e-05
4.19932e-05
4.24255e-05
4.26067e-05
4.25577e-05
4.2269e-05
4.16952e-05
4.07373e-05
3.92018e-05
3.67243e-05
3.26336e-05
2.57104e-05
1.41087e-05
)
;

boundaryField
{
    movingWall
    {
        type            calculated;
        value           uniform 0;
    }
    fixedWalls
    {
        type            calculated;
        value           uniform 0;
    }
    frontAndBack
    {
        type            empty;
        value           nonuniform 0();
    }
}


// ************************************************************************* //
