/*--------------------------------*- C++ -*----------------------------------*\
| RapidCFD by simFlow (sim-flow.com)                                          |
\*---------------------------------------------------------------------------*/
FoamFile
{
    version     2.0;
    format      ascii;
    class       volVectorField;
    location    "0.4";
    object      U;
}
// * * * * * * * * * * * * * * * * * * * * * * * * * * * * * * * * * * * * * //

dimensions      [0 1 -1 0 0 0 0];

internalField   nonuniform List<vector> 
400
(
(0.000253345 -0.000250515 0)
(0.000141125 0.000111383 0)
(-0.00117706 0.000564594 0)
(-0.00348126 0.000884995 0)
(-0.00637774 0.00104573 0)
(-0.00946985 0.00106178 0)
(-0.0124034 0.000957876 0)
(-0.0148856 0.000760457 0)
(-0.0166902 0.000494653 0)
(-0.0176591 0.000184562 0)
(-0.0177029 -0.000145275 0)
(-0.0168058 -0.000468382 0)
(-0.0150307 -0.00075544 0)
(-0.0125257 -0.0009743 0)
(-0.00952678 -0.00109123 0)
(-0.00635522 -0.00107405 0)
(-0.00340075 -0.000898155 0)
(-0.00108645 -0.000556408 0)
(0.000196447 -9.03622e-05 0)
(0.000267872 0.000262403 0)
(-7.75108e-05 -0.00016949 0)
(-0.0016117 0.00164481 0)
(-0.00569322 0.00361741 0)
(-0.0117195 0.00503502 0)
(-0.0188933 0.00574348 0)
(-0.0264022 0.00576047 0)
(-0.033471 0.00517192 0)
(-0.0394291 0.00409271 0)
(-0.0437465 0.00264776 0)
(-0.0460498 0.000966961 0)
(-0.0461321 -0.000813279 0)
(-0.0439639 -0.00254722 0)
(-0.0397034 -0.00407887 0)
(-0.0337046 -0.00524539 0)
(-0.0265148 -0.00588688 0)
(-0.0188556 -0.00586515 0)
(-0.0115672 -0.00509501 0)
(-0.00551354 -0.00358958 0)
(-0.00149314 -0.00155919 0)
(-4.2578e-05 0.000227489 0)
(-0.000528658 0.00109161 0)
(-0.00371164 0.00573652 0)
(-0.0105896 0.010225 0)
(-0.0199929 0.0134083 0)
(-0.0307667 0.0149471 0)
(-0.0418248 0.0148396 0)
(-0.0521231 0.0132564 0)
(-0.060748 0.0104567 0)
(-0.0669736 0.00674233 0)
(-0.0702871 0.00243896 0)
(-0.070405 -0.00210671 0)
(-0.0672885 -0.00652589 0)
(-0.0611561 -0.0104298 0)
(-0.0524916 -0.0134219 0)
(-0.0420395 -0.0151243 0)
(-0.0307757 -0.0152265 0)
(-0.0198302 -0.0135567 0)
(-0.0103641 -0.0101794 0)
(-0.00354869 -0.00555133 0)
(-0.000476865 -0.000948855 0)
(-0.000928286 0.00347999 0)
(-0.00569184 0.0122213 0)
(-0.0153027 0.0199227 0)
(-0.0279185 0.0251992 0)
(-0.041988 0.0275985 0)
(-0.0561825 0.0271389 0)
(-0.0692563 0.0241102 0)
(-0.0801306 0.0189549 0)
(-0.0879536 0.0121962 0)
(-0.0921244 0.00440522 0)
(-0.092309 -0.0038083 0)
(-0.0884554 -0.0117973 0)
(-0.0808097 -0.0188833 0)
(-0.0699269 -0.0243777 0)
(-0.0566724 -0.0276292 0)
(-0.0421971 -0.0281033 0)
(-0.0278581 -0.025499 0)
(-0.0150945 -0.0198927 0)
(-0.00550531 -0.0119282 0)
(-0.00086164 -0.003225 0)
(-0.001279 0.00687814 0)
(-0.00753646 0.0209547 0)
(-0.0198059 0.032512 0)
(-0.0355369 0.0401052 0)
(-0.0527464 0.0432925 0)
(-0.0698625 0.0421949 0)
(-0.0854683 0.0372794 0)
(-0.0983662 0.0292145 0)
(-0.107626 0.0187781 0)
(-0.112595 0.00681391 0)
(-0.112904 -0.00578087 0)
(-0.10848 -0.0180558 0)
(-0.0995675 -0.029013 0)
(-0.0867438 -0.0376347 0)
(-0.0709394 -0.0429472 0)
(-0.053433 -0.044131 0)
(-0.0357863 -0.0406806 0)
(-0.0197361 -0.0325939 0)
(-0.00737093 -0.0205915 0)
(-0.00120373 -0.00649842 0)
(-0.0016076 0.0112162 0)
(-0.00931844 0.031876 0)
(-0.0242104 0.0479539 0)
(-0.0430046 0.0580745 0)
(-0.0632599 0.0619398 0)
(-0.0831567 0.0598837 0)
(-0.101129 0.0526305 0)
(-0.115897 0.0411275 0)
(-0.126494 0.026438 0)
(-0.132243 0.00969308 0)
(-0.132755 -0.00791693 0)
(-0.127928 -0.0251334 0)
(-0.117971 -0.0406269 0)
(-0.103438 -0.0530217 0)
(-0.0852721 -0.0609688 0)
(-0.0648379 -0.0632826 0)
(-0.043887 -0.0591442 0)
(-0.0244785 -0.0483461 0)
(-0.00925462 -0.0315587 0)
(-0.0015378 -0.0107289 0)
(-0.00194011 0.0164777 0)
(-0.0111216 0.0449758 0)
(-0.0286512 0.0662356 0)
(-0.0504813 0.0790621 0)
(-0.073687 0.0834491 0)
(-0.0962065 0.0800768 0)
(-0.116355 0.0700267 0)
(-0.132818 0.0545866 0)
(-0.144635 0.0351327 0)
(-0.151145 0.0130849 0)
(-0.151953 -0.0100872 0)
(-0.146919 -0.032834 0)
(-0.136185 -0.0535017 0)
(-0.120226 -0.0703393 0)
(-0.0999349 -0.081568 0)
(-0.0767031 -0.0855353 0)
(-0.0524413 -0.0809661 0)
(-0.0295455 -0.0672789 0)
(-0.0112838 -0.0449408 0)
(-0.00190012 -0.015952 0)
(-0.00230007 0.0226956 0)
(-0.0130252 0.0603025 0)
(-0.0332513 0.0873659 0)
(-0.0580805 0.102999 0)
(-0.0840758 0.107668 0)
(-0.108955 0.102564 0)
(-0.130969 0.0892464 0)
(-0.148836 0.0694125 0)
(-0.161669 0.0447726 0)
(-0.16887 0.01702 0)
(-0.170065 -0.0121342 0)
(-0.165073 -0.0408947 0)
(-0.153932 -0.0673164 0)
(-0.136971 -0.0892757 0)
(-0.114944 -0.104515 0)
(-0.0891768 -0.110799 0)
(-0.0616713 -0.106215 0)
(-0.0351487 -0.0895813 0)
(-0.013586 -0.0609508 0)
(-0.00232636 -0.022278 0)
(-0.00271165 0.0299476 0)
(-0.015108 0.0779579 0)
(-0.0381148 0.111358 0)
(-0.0658486 0.129752 0)
(-0.0943271 0.13432 0)
(-0.121099 0.126976 0)
(-0.144444 0.109904 0)
(-0.163214 0.0852832 0)
(-0.176688 0.0551679 0)
(-0.184407 0.021487 0)
(-0.186058 -0.0138754 0)
(-0.181422 -0.0489579 0)
(-0.170395 -0.0815953 0)
(-0.153081 -0.109326 0)
(-0.129971 -0.129383 0)
(-0.102186 -0.138831 0)
(-0.0716897 -0.134889 0)
(-0.041467 -0.115471 0)
(-0.0162881 -0.0798965 0)
(-0.0028547 -0.02989 0)
(-0.00320765 0.03836 0)
(-0.0174662 0.0980904 0)
(-0.043341 0.138191 0)
(-0.0737565 0.159048 0)
(-0.10416 0.162903 0)
(-0.132032 0.152675 0)
(-0.155825 0.131343 0)
(-0.174679 0.101642 0)
(-0.188168 0.0659584 0)
(-0.196068 0.0263897 0)
(-0.198186 -0.0151132 0)
(-0.194284 -0.0565465 0)
(-0.184082 -0.0956436 0)
(-0.167366 -0.129691 0)
(-0.144215 -0.155426 0)
(-0.115339 -0.169099 0)
(-0.0824458 -0.166804 0)
(-0.0486361 -0.145126 0)
(-0.0195287 -0.102161 0)
(-0.00353357 -0.0390476 0)
(-0.00384394 0.048129 0)
(-0.0202461 0.120894 0)
(-0.0490464 0.167753 0)
(-0.0816862 0.190368 0)
(-0.113053 0.192559 0)
(-0.140746 0.178617 0)
(-0.163621 0.152514 0)
(-0.181309 0.117594 0)
(-0.193846 0.0765357 0)
(-0.20136 0.0314945 0)
(-0.203857 -0.0156593 0)
(-0.201109 -0.0630514 0)
(-0.192648 -0.108492 0)
(-0.177857 -0.149173 0)
(-0.156224 -0.181417 0)
(-0.127779 -0.200608 0)
(-0.0936441 -0.201426 0)
(-0.056733 -0.178575 0)
(-0.0234798 -0.128174 0)
(-0.00443553 -0.0501047 0)
(-0.00472535 0.0595714 0)
(-0.0236946 0.146618 0)
(-0.0553827 0.199757 0)
(-0.089376 0.222792 0)
(-0.120122 0.221893 0)
(-0.145675 0.20319 0)
(-0.16563 0.171842 0)
(-0.18037 0.131812 0)
(-0.190581 0.0859707 0)
(-0.196863 0.0363767 0)
(-0.199501 -0.0153709 0)
(-0.198335 -0.0677439 0)
(-0.192717 -0.118868 0)
(-0.181574 -0.16608 0)
(-0.163645 -0.20549 0)
(-0.137966 -0.231663 0)
(-0.104596 -0.237627 0)
(-0.0657334 -0.215526 0)
(-0.0283777 -0.158368 0)
(-0.00568207 -0.0635524 0)
(-0.00605155 0.0732285 0)
(-0.0282257 0.175564 0)
(-0.0625084 0.233572 0)
(-0.0962564 0.254748 0)
(-0.123856 0.248733 0)
(-0.144397 0.224028 0)
(-0.158669 0.187109 0)
(-0.168106 0.142463 0)
(-0.1742 0.0929696 0)
(-0.178117 0.0403794 0)
(-0.180484 -0.0141987 0)
(-0.181265 -0.0698219 0)
(-0.179694 -0.125212 0)
(-0.174269 -0.178181 0)
(-0.162894 -0.224975 0)
(-0.143316 -0.259589 0)
(-0.113937 -0.27333 0)
(-0.0753929 -0.255067 0)
(-0.0345562 -0.193091 0)
(-0.00748628 -0.0801044 0)
(-0.00819203 0.0900464 0)
(-0.0344826 0.208021 0)
(-0.0704118 0.267884 0)
(-0.101022 0.283607 0)
(-0.121573 0.269812 0)
(-0.133106 0.237842 0)
(-0.138161 0.195406 0)
(-0.13946 0.147234 0)
(-0.139365 0.0959099 0)
(-0.139593 0.0426198 0)
(-0.141107 -0.0122331 0)
(-0.144053 -0.0685077 0)
(-0.147667 -0.125795 0)
(-0.150168 -0.182771 0)
(-0.148719 -0.236326 0)
(-0.139643 -0.280448 0)
(-0.119094 -0.305026 0)
(-0.0849357 -0.295159 0)
(-0.0424404 -0.232378 0)
(-0.010216 -0.100837 0)
(-0.0117675 0.111635 0)
(-0.0432595 0.243962 0)
(-0.0782967 0.300035 0)
(-0.100627 0.305093 0)
(-0.10835 0.280461 0)
(-0.105729 0.240384 0)
(-0.0975266 0.193282 0)
(-0.0877676 0.14355 0)
(-0.0794974 0.0930364 0)
(-0.0747817 0.0420952 0)
(-0.0747993 -0.00972895 0)
(-0.0798873 -0.0632117 0)
(-0.0894598 -0.118991 0)
(-0.101786 -0.176958 0)
(-0.113684 -0.235286 0)
(-0.120304 -0.288883 0)
(-0.115262 -0.327197 0)
(-0.092266 -0.331795 0)
(-0.0523155 -0.275404 0)
(-0.0144303 -0.127347 0)
(-0.0175493 0.140659 0)
(-0.0547643 0.282145 0)
(-0.0827856 0.324719 0)
(-0.0880793 0.312474 0)
(-0.0751067 0.274457 0)
(-0.0525886 0.226771 0)
(-0.0274555 0.177289 0)
(-0.00451109 0.129136 0)
(0.0131026 0.0829132 0)
(0.0234439 0.037947 0)
(0.0254025 -0.00707364 0)
(0.0185112 -0.053759 0)
(0.00298328 -0.103752 0)
(-0.0199939 -0.158321 0)
(-0.0476834 -0.217503 0)
(-0.0749829 -0.278361 0)
(-0.0935455 -0.331792 0)
(-0.0920631 -0.357683 0)
(-0.0632803 -0.319294 0)
(-0.0206336 -0.161974 0)
(-0.0254497 0.181711 0)
(-0.0657744 0.317771 0)
(-0.0733325 0.331363 0)
(-0.048076 0.295401 0)
(-0.00557666 0.244212 0)
(0.0412207 0.192381 0)
(0.0846558 0.145048 0)
(0.12054 0.102972 0)
(0.146706 0.0651382 0)
(0.162051 0.0298915 0)
(0.165945 -0.00467169 0)
(0.157939 -0.0406288 0)
(0.137735 -0.080247 0)
(0.105443 -0.125918 0)
(0.0622643 -0.179727 0)
(0.0118073 -0.242021 0)
(-0.0378289 -0.307878 0)
(-0.0716788 -0.360143 0)
(-0.0700553 -0.356608 0)
(-0.0279122 -0.208375 0)
(-0.029649 0.239176 0)
(-0.0608412 0.335768 0)
(-0.0219421 0.300503 0)
(0.0505425 0.240128 0)
(0.127573 0.182949 0)
(0.197009 0.13539 0)
(0.254339 0.0973994 0)
(0.298253 0.0668514 0)
(0.328827 0.0413555 0)
(0.34647 0.0187786 0)
(0.351379 -0.00279425 0)
(0.343305 -0.0252654 0)
(0.321471 -0.050788 0)
(0.284644 -0.0820484 0)
(0.231573 -0.122446 0)
(0.162182 -0.175669 0)
(0.0799013 -0.243431 0)
(-0.00318951 -0.319136 0)
(-0.0546694 -0.368612 0)
(-0.0284594 -0.267618 0)
(0.00808309 0.281861 0)
(0.019783 0.294972 0)
(0.139066 0.210973 0)
(0.26446 0.143477 0)
(0.364368 0.0971861 0)
(0.440365 0.0657776 0)
(0.496744 0.0442376 0)
(0.536875 0.0288861 0)
(0.563448 0.0171989 0)
(0.578307 0.00748479 0)
(0.582382 -0.00149417 0)
(0.575697 -0.0108453 0)
(0.55731 -0.0218472 0)
(0.525136 -0.0363351 0)
(0.475778 -0.0572597 0)
(0.404538 -0.0893842 0)
(0.305177 -0.139741 0)
(0.173417 -0.216386 0)
(0.0411721 -0.311655 0)
(0.0184302 -0.299995 0)
(0.299604 0.146091 0)
(0.396272 0.127503 0)
(0.55742 0.0760895 0)
(0.674487 0.0437233 0)
(0.743889 0.0255721 0)
(0.787153 0.0152422 0)
(0.815486 0.00921236 0)
(0.833956 0.00550943 0)
(0.845386 0.00302719 0)
(0.851372 0.00114934 0)
(0.852666 -0.000499397 0)
(0.849383 -0.00221509 0)
(0.841 -0.00433858 0)
(0.826141 -0.0074241 0)
(0.802078 -0.0125323 0)
(0.763621 -0.0217728 0)
(0.699108 -0.0392829 0)
(0.583952 -0.0726601 0)
(0.415827 -0.127868 0)
(0.308819 -0.149468 0)
)
;

boundaryField
{
    movingWall
    {
        type            fixedValue;
        value           uniform (1 0 0);
    }
    fixedWalls
    {
        type            fixedValue;
        value           uniform (0 0 0);
    }
    frontAndBack
    {
        type            empty;
    }
}


// ************************************************************************* //
