/*--------------------------------*- C++ -*----------------------------------*\
| RapidCFD by simFlow (sim-flow.com)                                          |
\*---------------------------------------------------------------------------*/
FoamFile
{
    version     2.0;
    format      ascii;
    class       volScalarField;
    location    "0.5";
    object      p;
}
// * * * * * * * * * * * * * * * * * * * * * * * * * * * * * * * * * * * * * //

dimensions      [0 2 -2 0 0 0 0];

internalField   nonuniform List<scalar> 
400
(
5.51147e-06
-0.00582064
-0.0129582
-0.0184105
-0.020428
-0.0182344
-0.01177
-0.0014798
0.0118412
0.027153
0.0432483
0.058827
0.0725827
0.0833125
0.0900568
0.092271
0.0900299
0.084248
0.0768848
0.0710714
0.00578538
-0.000213636
-0.00579951
-0.00953822
-0.0105948
-0.00842867
-0.00296598
0.00547806
0.0163068
0.0287156
0.0417537
0.0543899
0.0655904
0.074414
0.0801244
0.0823199
0.0810814
0.077059
0.0712782
0.065322
0.0133398
0.00503818
-0.000990916
-0.00441883
-0.00526878
-0.00325989
0.0016063
0.00903146
0.0185059
0.0293531
0.0407693
0.0518736
0.0617725
0.0696404
0.0748111
0.0768822
0.0758458
0.07209
0.0658096
0.0575396
0.020144
0.00870042
0.00123023
-0.00266428
-0.00371799
-0.00188126
0.00273524
0.00978841
0.0187842
0.0290988
0.0399958
0.0506579
0.0602369
0.06792
0.0730073
0.0750056
0.0737699
0.0694602
0.0616071
0.0501066
0.0245065
0.00977758
0.000594164
-0.00398262
-0.00529806
-0.00350327
0.00117871
0.00833845
0.0174658
0.0279529
0.0390888
0.0500738
0.0600528
0.068169
0.0736304
0.0758018
0.074373
0.0692938
0.0595296
0.0445412
0.0251823
0.00715448
-0.00379761
-0.00905284
-0.0105079
-0.00849581
-0.00335276
0.00443339
0.0143172
0.0256828
0.0378176
0.0499072
0.0610521
0.0703071
0.0767386
0.0795209
0.0781429
0.0723376
0.0605433
0.0418941
0.0210979
-0.000257905
-0.0129301
-0.018705
-0.0200255
-0.0174096
-0.0113142
-0.00231561
0.00899443
0.0219801
0.0359135
0.0499483
0.0631161
0.0743493
0.0825259
0.0865735
0.0857247
0.0794512
0.0656245
0.0430759
0.0111473
-0.0136137
-0.0278706
-0.0338499
-0.0345992
-0.0308531
-0.0232086
-0.012341
0.00110902
0.016488
0.0330566
0.0499376
0.0660873
0.0802939
0.0912048
0.0974341
0.0978744
0.0916401
0.0759004
0.0491207
-0.00596272
-0.034262
-0.0498656
-0.0555442
-0.0550857
-0.0495102
-0.0395891
-0.0261089
-0.00975278
0.00882725
0.0289052
0.0495976
0.0698016
0.0881586
0.103052
0.112705
0.115555
0.110196
0.0928385
0.0614157
-0.0318527
-0.0638717
-0.0804125
-0.0850027
-0.0824157
-0.0740739
-0.0609764
-0.0440321
-0.0239471
-0.00133253
0.0231499
0.0486653
0.0740999
0.0979764
0.1184
0.13313
0.139993
0.136822
0.118445
0.0819381
-0.0686628
-0.104599
-0.12134
-0.123586
-0.117511
-0.105122
-0.0877137
-0.066321
-0.0416325
-0.0141511
0.0156101
0.0469577
0.0788602
0.109798
0.137628
0.15959
0.172731
0.173782
0.155525
0.113575
-0.119398
-0.159352
-0.17491
-0.172752
-0.161143
-0.142924
-0.119754
-0.0927724
-0.0625728
-0.0294429
0.00637782
0.0444781
0.0840597
0.123708
0.161141
0.193091
0.215673
0.224081
0.208055
0.160637
-0.188623
-0.232237
-0.243934
-0.233943
-0.213689
-0.18715
-0.156368
-0.122496
-0.085893
-0.0464672
-0.00400954
0.0415437
0.089847
0.139834
0.189324
0.234694
0.271079
0.291669
0.281747
0.22978
-0.283969
-0.329299
-0.331826
-0.308275
-0.274703
-0.236435
-0.195759
-0.153605
-0.109835
-0.0637399
-0.0144326
0.0388687
0.0965595
0.158282
0.222379
0.285293
0.341402
0.38158
0.384919
0.331839
-0.419313
-0.459665
-0.442345
-0.395787
-0.342123
-0.287734
-0.23461
-0.182924
-0.131604
-0.0789792
-0.0232082
0.0374811
0.104559
0.178843
0.259867
0.344976
0.428622
0.499705
0.52968
0.485397
-0.620525
-0.636738
-0.578671
-0.494187
-0.411234
-0.335652
-0.267774
-0.205971
-0.14753
-0.0893767
-0.0284197
0.0383546
0.113813
0.200478
0.299981
0.412031
0.533035
0.651781
0.732777
0.722401
-0.935917
-0.878508
-0.741735
-0.597942
-0.474386
-0.372653
-0.288862
-0.217756
-0.153947
-0.0924572
-0.0287106
0.0417023
0.12327
0.220725
0.338932
0.482161
0.652003
0.841348
1.01528
1.09751
-1.47642
-1.20662
-0.920496
-0.691381
-0.517298
-0.387537
-0.290054
-0.21333
-0.148117
-0.0872087
-0.0245708
0.0454643
0.128944
0.233078
0.36711
0.542685
0.7713
1.05932
1.40329
1.73015
-2.53964
-1.63054
-1.04443
-0.710952
-0.495744
-0.352087
-0.254524
-0.183576
-0.126162
-0.0735883
-0.0192623
0.0427936
0.119219
0.218789
0.354819
0.54799
0.826399
1.23659
1.91168
2.9242
-4.36666
-2.04463
-0.973535
-0.563174
-0.35784
-0.24014
-0.170113
-0.123776
-0.0874746
-0.0535036
-0.0166477
0.0276674
0.0846143
0.161736
0.272418
0.442106
0.718225
1.22572
2.41104
4.84854
)
;

boundaryField
{
    movingWall
    {
        type            zeroGradient;
    }
    fixedWalls
    {
        type            zeroGradient;
    }
    frontAndBack
    {
        type            empty;
    }
}


// ************************************************************************* //
