/*--------------------------------*- C++ -*----------------------------------*\
| RapidCFD by simFlow (sim-flow.com)                                          |
\*---------------------------------------------------------------------------*/
FoamFile
{
    version     2.0;
    format      ascii;
    class       surfaceScalarField;
    location    "0.5";
    object      phi;
}
// * * * * * * * * * * * * * * * * * * * * * * * * * * * * * * * * * * * * * //

dimensions      [0 3 -1 0 0 0 0];

internalField   nonuniform List<scalar> 
760
(
1.4228e-08
-1.42738e-08
-2.22143e-08
3.64416e-08
-1.14278e-07
9.20632e-08
-2.4551e-07
1.31232e-07
-3.96123e-07
1.50614e-07
-5.47399e-07
1.51278e-07
-6.83232e-07
1.35833e-07
-7.9071e-07
1.07478e-07
-8.60257e-07
6.95473e-08
-8.85692e-07
2.54341e-08
-8.64368e-07
-2.13239e-08
-7.97432e-07
-6.6936e-08
-6.90121e-07
-1.0731e-07
-5.52001e-07
-1.38121e-07
-3.96963e-07
-1.55039e-07
-2.42761e-07
-1.54203e-07
-1.09738e-07
-1.33024e-07
-1.8417e-08
-9.13217e-08
1.56903e-08
-3.41069e-08
1.5691e-08
-3.42202e-08
1.99469e-08
-1.8039e-07
1.82611e-07
-4.34022e-07
3.45696e-07
-7.64491e-07
4.61701e-07
-1.1323e-06
5.18419e-07
-1.49735e-06
5.16336e-07
-1.82347e-06
4.6195e-07
-2.08069e-06
3.64694e-07
-2.24644e-06
2.35297e-07
-2.3062e-06
8.52014e-08
-2.25406e-06
-7.34694e-08
-2.09319e-06
-2.27802e-07
-1.83638e-06
-3.64119e-07
-1.50614e-06
-4.68365e-07
-1.13415e-06
-5.27025e-07
-7.59568e-07
-5.28789e-07
-4.25425e-07
-4.67166e-07
-1.72702e-07
-3.44045e-07
-3.08037e-08
-1.76006e-07
-1.51131e-08
-9.22362e-08
1.12183e-07
-3.57024e-07
4.47399e-07
-7.64614e-07
7.53286e-07
-1.26858e-06
9.65664e-07
-1.81483e-06
1.06467e-06
-2.34921e-06
1.05072e-06
-2.82263e-06
9.35369e-07
-3.19416e-06
7.36226e-07
-3.43284e-06
4.73978e-07
-3.51875e-06
1.71107e-07
-3.4438e-06
-1.48417e-07
-3.21246e-06
-4.59136e-07
-2.84228e-06
-7.34298e-07
-2.36395e-06
-9.46701e-07
-1.82042e-06
-1.07055e-06
-1.26456e-06
-1.08465e-06
-7.54565e-07
-9.77161e-07
-3.4699e-07
-7.5162e-07
-8.73407e-08
-4.35655e-07
-1.02454e-07
-1.45221e-07
2.57404e-07
-5.25496e-07
8.27674e-07
-1.0817e-06
1.30949e-06
-1.74762e-06
1.63158e-06
-2.45448e-06
1.77153e-06
-3.13656e-06
1.7328e-06
-3.73551e-06
1.53432e-06
-4.20316e-06
1.20387e-06
-4.50318e-06
7.74004e-07
-4.61219e-06
2.80119e-07
-4.52052e-06
-2.40096e-07
-4.23297e-06
-7.4668e-07
-3.76957e-06
-1.1977e-06
-3.16581e-06
-1.55047e-06
-2.47201e-06
-1.76435e-06
-1.75116e-06
-1.8055e-06
-1.07456e-06
-1.65376e-06
-5.15165e-07
-1.31102e-06
-1.39323e-07
-8.11496e-07
-2.41777e-07
-1.93621e-07
4.51024e-07
-6.85038e-07
1.31909e-06
-1.38569e-06
2.01015e-06
-2.20735e-06
2.45324e-06
-3.06562e-06
2.6298e-06
-3.88397e-06
2.55115e-06
-4.59673e-06
2.24708e-06
-5.15084e-06
1.75797e-06
-5.50672e-06
1.12988e-06
-5.63879e-06
4.12197e-07
-5.53602e-06
-3.42874e-07
-5.20261e-06
-1.08008e-06
-4.65909e-06
-1.74122e-06
-3.94313e-06
-2.26643e-06
-3.10984e-06
-2.59764e-06
-2.23059e-06
-2.68474e-06
-1.3897e-06
-2.49465e-06
-6.78527e-07
-2.02219e-06
-1.87776e-07
-1.30225e-06
-4.29552e-07
-2.39952e-07
6.90976e-07
-8.40386e-07
1.91952e-06
-1.68336e-06
2.85312e-06
-2.65717e-06
3.42705e-06
-3.66099e-06
3.63362e-06
-4.60796e-06
3.49812e-06
-5.42658e-06
3.0657e-06
-6.06082e-06
2.39222e-06
-6.46962e-06
1.53868e-06
-6.62632e-06
5.68897e-07
-6.51858e-06
-4.50615e-07
-6.14904e-06
-1.44962e-06
-5.53675e-06
-2.35351e-06
-4.7191e-06
-3.08408e-06
-3.75359e-06
-3.56314e-06
-2.71857e-06
-3.71976e-06
-1.7116e-06
-3.50163e-06
-8.44692e-07
-2.88909e-06
-2.36188e-07
-1.91075e-06
-6.6574e-07
-2.86756e-07
9.77731e-07
-9.9712e-07
2.62989e-06
-1.98215e-06
3.83815e-06
-3.10505e-06
4.54995e-06
-4.2481e-06
4.77666e-06
-5.31499e-06
4.56502e-06
-6.23032e-06
3.98102e-06
-6.9374e-06
3.09929e-06
-7.39573e-06
1.99701e-06
-7.57887e-06
7.52035e-07
-7.4734e-06
-5.56084e-07
-7.07933e-06
-1.84369e-06
-6.41208e-06
-3.02076e-06
-5.50575e-06
-3.99041e-06
-4.41719e-06
-4.6517e-06
-3.22946e-06
-4.90749e-06
-2.05301e-06
-4.67808e-06
-1.02257e-06
-3.91954e-06
-2.8829e-07
-2.64503e-06
-9.54029e-07
-3.3634e-07
1.31407e-06
-1.1604e-06
3.45395e-06
-2.28807e-06
4.96582e-06
-3.55508e-06
5.81696e-06
-4.82674e-06
6.04832e-06
-5.99921e-06
5.7375e-06
-6.9962e-06
4.97801e-06
-7.76371e-06
3.8668e-06
-8.26468e-06
2.49799e-06
-8.47481e-06
9.62167e-07
-8.38015e-06
-6.5074e-07
-7.97708e-06
-2.24676e-06
-7.27474e-06
-3.7231e-06
-6.30009e-06
-4.96506e-06
-5.10478e-06
-5.84701e-06
-3.77261e-06
-6.23966e-06
-2.42494e-06
-6.02575e-06
-1.22077e-06
-5.1237e-06
-3.47715e-07
-3.51808e-06
-1.30174e-06
-3.90963e-07
1.70503e-06
-1.3349e-06
4.39789e-06
-2.60501e-06
6.23593e-06
-4.006e-06
7.21795e-06
-5.38689e-06
7.42921e-06
-6.63984e-06
6.99045e-06
-7.69254e-06
6.03071e-06
-8.49859e-06
4.67285e-06
-9.02854e-06
3.02794e-06
-9.26305e-06
1.19668e-06
-9.18878e-06
-7.25015e-07
-8.7976e-06
-2.63794e-06
-8.08948e-06
-4.43123e-06
-7.07912e-06
-5.97542e-06
-5.8064e-06
-7.11972e-06
-4.3491e-06
-7.69696e-06
-2.83485e-06
-7.54001e-06
-1.44711e-06
-6.51144e-06
-4.18105e-07
-4.54709e-06
-1.71985e-06
-4.53455e-07
2.15849e-06
-1.52569e-06
5.47012e-06
-2.93489e-06
7.64514e-06
-4.45014e-06
8.73319e-06
-5.90636e-06
8.88543e-06
-7.19786e-06
8.28195e-06
-8.26371e-06
7.09657e-06
-9.07213e-06
5.48126e-06
-9.60694e-06
3.56276e-06
-9.85767e-06
1.4474e-06
-9.8135e-06
-7.69186e-07
-9.46145e-06
-2.98999e-06
-8.78917e-06
-5.1035e-06
-7.79306e-06
-6.97153e-06
-6.49226e-06
-8.42053e-06
-4.948e-06
-9.24121e-06
-3.28513e-06
-9.20287e-06
-1.70869e-06
-8.08789e-06
-5.03591e-07
-5.75219e-06
-2.22344e-06
-5.28332e-07
2.68682e-06
-1.73965e-06
6.68144e-06
-3.27796e-06
9.18344e-06
-4.8716e-06
1.03268e-05
-6.34698e-06
1.03608e-05
-7.61079e-06
9.54576e-06
-8.62432e-06
8.1101e-06
-9.37965e-06
6.23659e-06
-9.88095e-06
4.06406e-06
-1.01315e-05
1.69795e-06
-1.01257e-05
-7.74931e-07
-9.84631e-06
-3.26943e-06
-9.26597e-06
-5.68384e-06
-8.35632e-06
-7.88118e-06
-7.10468e-06
-9.67216e-06
-5.54069e-06
-1.08052e-05
-3.7707e-06
-1.09729e-05
-2.01217e-06
-9.84642e-06
-6.09688e-07
-7.15467e-06
-2.83313e-06
-6.23657e-07
3.31048e-06
-1.98736e-06
8.04514e-06
-3.63186e-06
1.08279e-05
-5.24186e-06
1.19368e-05
-6.64749e-06
1.17664e-05
-7.78438e-06
1.06826e-05
-8.6509e-06
8.97663e-06
-9.27419e-06
6.85987e-06
-9.68641e-06
4.47629e-06
-9.9097e-06
1.92123e-06
-9.94712e-06
-7.37507e-07
-9.77848e-06
-3.43807e-06
-9.3608e-06
-6.10152e-06
-8.63555e-06
-8.60644e-06
-7.54633e-06
-1.07614e-05
-6.07155e-06
-1.228e-05
-4.27425e-06
-1.27702e-05
-2.36364e-06
-1.1757e-05
-7.44774e-07
-8.77353e-06
-3.5779e-06
-7.54064e-07
4.06454e-06
-2.28431e-06
9.57539e-06
-3.98694e-06
1.25306e-05
-5.509e-06
1.34589e-05
-6.70948e-06
1.29669e-05
-7.57841e-06
1.15516e-05
-8.16989e-06
9.5681e-06
-8.55745e-06
7.24743e-06
-8.80754e-06
4.72639e-06
-8.96487e-06
2.07855e-06
-9.04419e-06
-6.5818e-07
-9.02559e-06
-3.45667e-06
-8.85246e-06
-6.27465e-06
-8.43471e-06
-9.02419e-06
-7.66282e-06
-1.15333e-05
-6.44194e-06
-1.35009e-05
-4.75622e-06
-1.44559e-05
-2.76673e-06
-1.37465e-05
-9.2243e-07
-1.06178e-05
-4.50033e-06
-9.45191e-07
5.00974e-06
-2.64845e-06
1.12786e-05
-4.31091e-06
1.4193e-05
-5.57317e-06
1.47211e-05
-6.37052e-06
1.37643e-05
-6.78307e-06
1.19641e-05
-6.94025e-06
9.72529e-06
-6.96946e-06
7.27664e-06
-6.97249e-06
4.72942e-06
-7.0162e-06
2.12227e-06
-7.12831e-06
-5.46069e-07
-7.29349e-06
-3.29149e-06
-7.4484e-06
-6.11974e-06
-7.47769e-06
-8.9949e-06
-7.21779e-06
-1.17932e-05
-6.48265e-06
-1.4236e-05
-5.13337e-06
-1.58052e-05
-3.21495e-06
-1.56649e-05
-1.16438e-06
-1.26684e-05
-5.66471e-06
-1.2373e-06
6.24704e-06
-3.08324e-06
1.31246e-05
-4.50761e-06
1.56174e-05
-5.23434e-06
1.54479e-05
-5.35502e-06
1.38849e-05
-5.08159e-06
1.16907e-05
-4.63061e-06
9.27431e-06
-4.17894e-06
6.82497e-06
-3.85401e-06
4.40449e-06
-3.73667e-06
2.00493e-06
-3.86478e-06
-4.17953e-07
-4.23232e-06
-2.92395e-06
-4.7818e-06
-5.57026e-06
-5.39083e-06
-8.38586e-06
-5.85831e-06
-1.13257e-05
-5.90645e-06
-1.41879e-05
-5.23274e-06
-1.64789e-05
-3.66623e-06
-1.72315e-05
-1.50007e-06
-1.48346e-05
-7.16478e-06
-1.67379e-06
7.92083e-06
-3.51332e-06
1.49641e-05
-4.31521e-06
1.64193e-05
-4.08873e-06
1.52214e-05
-3.19286e-06
1.29891e-05
-1.99849e-06
1.04963e-05
-7.94855e-07
8.07067e-06
2.1966e-07
5.81046e-06
9.18578e-07
3.70557e-06
1.22596e-06
1.69755e-06
1.10241e-06
-2.94403e-07
5.41383e-07
-2.36293e-06
-4.22644e-07
-4.60624e-06
-1.69233e-06
-7.11618e-06
-3.07222e-06
-9.94579e-06
-4.23069e-06
-1.30294e-05
-4.69557e-06
-1.6014e-05
-3.96714e-06
-1.79599e-05
-1.94491e-06
-1.68568e-05
-9.10969e-06
-2.23068e-06
1.01515e-05
-3.59026e-06
1.63237e-05
-3.07771e-06
1.59068e-05
-1.34376e-06
1.34874e-05
8.972e-07
1.07481e-05
3.15518e-06
8.23835e-06
5.13837e-06
6.08748e-06
6.68898e-06
4.25985e-06
7.72614e-06
2.66841e-06
8.20687e-06
1.21682e-06
8.1042e-06
-1.91731e-07
7.39933e-06
-1.65805e-06
6.08712e-06
-3.29403e-06
4.1994e-06
-5.22846e-06
1.85432e-06
-7.60071e-06
-6.61594e-07
-1.05135e-05
-2.7921e-06
-1.38835e-05
-3.66205e-06
-1.70899e-05
-2.41153e-06
-1.81073e-05
-1.15212e-05
-2.57381e-06
1.27253e-05
-2.18344e-06
1.59333e-05
7.18117e-07
1.30052e-05
4.46965e-06
9.73591e-06
8.13341e-06
7.08435e-06
1.13017e-05
5.07003e-06
1.38293e-05
3.55992e-06
1.56883e-05
2.40081e-06
1.68919e-05
1.46482e-06
1.74551e-05
6.53609e-07
1.73766e-05
-1.13207e-07
1.66307e-05
-9.1217e-07
1.51674e-05
-1.83069e-06
1.29237e-05
-2.98476e-06
9.86188e-06
-4.53891e-06
6.06206e-06
-6.71366e-06
1.9124e-06
-9.73383e-06
-1.5596e-06
-1.36179e-05
-2.45833e-06
-1.72086e-05
-1.39795e-05
-7.85014e-07
1.35103e-05
4.0808e-06
1.10675e-05
1.02976e-05
6.78843e-06
1.57937e-05
4.2398e-06
2.01581e-05
2.71992e-06
2.34582e-05
1.76996e-06
2.58609e-05
1.15715e-06
2.75217e-05
7.40062e-07
2.85542e-05
4.32299e-07
2.90266e-05
1.81223e-07
2.89624e-05
-4.8984e-08
2.83389e-05
-2.88705e-07
2.7082e-05
-5.73749e-07
2.50552e-05
-9.57966e-07
2.20518e-05
-1.53553e-06
1.78156e-05
-2.47743e-06
1.21724e-05
-4.09069e-06
5.47774e-06
-6.92325e-06
-1.29166e-07
-1.16017e-05
-1.41087e-05
1.35103e-05
2.45778e-05
3.13663e-05
3.56061e-05
3.8326e-05
4.0096e-05
4.12531e-05
4.19932e-05
4.24255e-05
4.26067e-05
4.25577e-05
4.2269e-05
4.16953e-05
4.07373e-05
3.92018e-05
3.67243e-05
3.26336e-05
2.57104e-05
1.41087e-05
)
;

boundaryField
{
    movingWall
    {
        type            calculated;
        value           uniform 0;
    }
    fixedWalls
    {
        type            calculated;
        value           uniform 0;
    }
    frontAndBack
    {
        type            empty;
        value           nonuniform 0();
    }
}


// ************************************************************************* //
